ITEM: TIMESTEP
100
ITEM: NUMBER OF ATOMS
7000
ITEM: BOX BOUNDS pp pp pp
-36.000000 36.000000
-36.000000 36.000000
-36.000000 36.000000
ITEM: ATOMS id type color radius Transparency xu yu zu
0 100 1 0.272558 0.100000 -5.147753 3.397243 -1.462424
1 100 1 0.272558 0.100000 7.583746 -1.067880 1.289947
2 100 1 0.272558 0.100000 -6.975234 -0.384807 1.553776
3 100 1 0.272558 0.100000 -5.106215 1.014979 -2.026223
4 100 1 0.272558 0.100000 -0.306238 -3.794963 1.920050
5 100 1 0.272558 0.100000 -1.399423 -2.154554 -2.312407
6 100 1 0.272558 0.100000 -0.145509 -4.776182 -1.495122
7 100 1 0.272558 0.100000 0.905098 -4.276589 -1.753111
8 100 1 0.272558 0.100000 6.440998 0.855331 -1.712062
9 100 1 0.272558 0.100000 -7.169351 -2.529159 1.055942
10 100 1 0.272558 0.100000 -5.904215 -2.825782 -1.448796
11 100 1 0.272558 0.100000 -4.742656 2.688366 1.797046
12 100 1 0.272558 0.100000 -8.157105 2.116908 0.628954
13 100 1 0.272558 0.100000 -5.783195 1.770033 1.749855
14 100 1 0.272558 0.100000 6.065736 -3.511248 1.099830
15 100 1 0.272558 0.100000 -5.678389 -4.560798 0.308432
16 100 1 0.272558 0.100000 6.785853 0.169701 1.657054
17 100 1 0.272558 0.100000 0.238611 -2.564930 -2.251990
18 100 1 0.272558 0.100000 5.952606 -1.674256 -1.726982
19 100 1 0.272558 0.100000 5.476692 -4.714387 -0.060820
20 100 1 0.272558 0.100000 0.293694 4.504285 -1.634688
21 100 1 0.272558 0.100000 -2.977009 5.254637 -0.910803
22 100 1 0.272558 0.100000 -5.614374 4.496140 0.507304
23 100 1 0.272558 0.100000 -3.031159 -0.372688 2.342893
24 100 1 0.272558 0.100000 1.678851 4.920619 -1.334965
25 100 1 0.272558 0.100000 6.564473 3.631628 -0.836568
26 100 1 0.272558 0.100000 -6.192218 -3.238485 -1.177231
27 100 1 0.272558 0.100000 4.647239 -0.206532 2.136661
28 100 1 0.272558 0.100000 2.693979 -0.984130 2.338517
29 100 1 0.272558 0.100000 7.706911 1.423373 -1.166538
30 100 1 0.272558 0.100000 0.603933 -4.684875 1.536424
31 100 1 0.272558 0.100000 7.425173 -3.056754 0.552874
32 100 1 0.272558 0.100000 -3.561347 1.717108 -2.187746
33 100 1 0.272558 0.100000 -4.638758 -4.833991 0.689444
34 100 1 0.272558 0.100000 -5.640950 -3.141220 1.446870
35 100 1 0.272558 0.100000 -1.007727 -4.219196 -1.738698
36 100 1 0.272558 0.100000 -0.383578 3.068776 2.155863
37 100 1 0.272558 0.100000 2.300869 5.160522 1.084390
38 100 1 0.272558 0.100000 -3.484752 4.530744 1.340270
39 100 1 0.272558 0.100000 -1.275608 -4.633989 1.532115
40 100 1 0.272558 0.100000 6.177637 3.231150 -1.193674
41 100 1 0.272558 0.100000 1.344582 3.922415 -1.853053
42 100 1 0.272558 0.100000 2.001458 4.266163 1.681469
43 100 1 0.272558 0.100000 7.330547 0.742435 -1.397115
44 100 1 0.272558 0.100000 -2.532547 3.471983 -1.930249
45 100 1 0.272558 0.100000 6.758283 -3.922303 0.201710
46 100 1 0.272558 0.100000 -8.270274 -1.061813 0.864386
47 100 1 0.272558 0.100000 0.041634 3.835288 -1.913563
48 100 1 0.272558 0.100000 8.846045 0.893388 0.337657
49 100 1 0.272558 0.100000 -2.456584 5.462362 -0.824503
50 100 1 0.272558 0.100000 -4.996659 3.411441 1.530769
51 100 1 0.272558 0.100000 1.515455 0.857847 2.429810
52 100 1 0.272558 0.100000 3.837765 5.201982 -0.675484
53 100 1 0.272558 0.100000 4.904157 5.048837 -0.192985
54 100 1 0.272558 0.100000 -7.265153 0.218256 -1.457008
55 100 1 0.272558 0.100000 -1.358784 -3.988354 -1.813625
56 100 1 0.272558 0.100000 -5.662129 -3.858287 -1.117277
57 100 1 0.272558 0.100000 -7.580914 0.866045 1.318497
58 100 1 0.272558 0.100000 -0.092089 2.112144 2.334171
59 100 1 0.272558 0.100000 -4.066926 -3.256629 -1.777353
60 100 1 0.272558 0.100000 -0.243234 4.882599 1.470774
61 100 1 0.272558 0.100000 -2.519923 -2.243179 2.198370
62 100 1 0.272558 0.100000 -2.632183 0.938131 -2.372332
63 100 1 0.272558 0.100000 -4.527060 -3.278523 1.659046
64 100 1 0.272558 0.100000 3.143643 -5.053110 1.023781
65 100 1 0.272558 0.100000 4.726658 -5.075585 0.113977
66 100 1 0.272558 0.100000 -7.485624 -3.280111 0.019259
67 100 1 0.272558 0.100000 -3.326584 4.058731 -1.581306
68 100 1 0.272558 0.100000 -3.842099 5.131788 -0.696912
69 100 1 0.272558 0.100000 0.847213 4.245628 1.739390
70 100 1 0.272558 0.100000 4.509493 5.069786 -0.539607
71 100 1 0.272558 0.100000 1.415048 1.211498 -2.428003
72 100 1 0.272558 0.100000 7.705509 2.906986 -0.471241
73 100 1 0.272558 0.100000 -1.517463 -1.382470 -2.404660
74 100 1 0.272558 0.100000 -0.502616 0.964406 -2.452619
75 100 1 0.272558 0.100000 -0.642095 -3.066150 2.129146
76 100 1 0.272558 0.100000 -2.044761 0.948226 -2.414812
77 100 1 0.272558 0.100000 -4.399619 -0.050198 -2.190744
78 100 1 0.272558 0.100000 1.267169 2.891563 2.154398
79 100 1 0.272558 0.100000 -1.360661 -4.769961 -1.461815
80 100 1 0.272558 0.100000 -5.925926 2.339102 -1.604188
81 100 1 0.272558 0.100000 -7.983349 1.037022 -1.045882
82 100 1 0.272558 0.100000 2.990113 -1.337814 -2.278871
83 100 1 0.272558 0.100000 2.027776 -2.701564 -2.172779
84 100 1 0.272558 0.100000 1.957570 0.983417 2.403585
85 100 1 0.272558 0.100000 6.458508 2.234860 -1.478284
86 100 1 0.272558 0.100000 -0.082238 -2.466858 2.267165
87 100 1 0.272558 0.100000 7.188952 -0.771715 1.449917
88 100 1 0.272558 0.100000 -3.764485 4.914521 -0.961119
89 100 1 0.272558 0.100000 -0.950187 0.735711 2.474084
90 100 1 0.272558 0.100000 -3.363539 -0.016682 -2.328001
91 100 1 0.272558 0.100000 -5.224913 -1.500217 -1.929035
92 100 1 0.272558 0.100000 -2.303457 0.875331 -2.375780
93 100 1 0.272558 0.100000 7.731030 3.009105 -0.114650
94 100 1 0.272558 0.100000 0.888468 -3.444675 2.051009
95 100 1 0.272558 0.100000 4.283256 5.239568 0.066201
96 100 1 0.272558 0.100000 -2.154549 3.048037 -2.054200
97 100 1 0.272558 0.100000 1.962003 -5.838756 -0.287891
98 100 1 0.272558 0.100000 5.305451 -0.335439 2.019269
99 100 1 0.272558 0.100000 0.490833 3.863221 -1.907221
100 100 1 0.272558 0.100000 2.238601 -2.110339 2.262846
101 100 1 0.272558 0.100000 8.012413 1.522407 -0.914779
102 100 1 0.272558 0.100000 -8.543790 -1.778018 0.035105
103 100 1 0.272558 0.100000 0.181424 2.981296 -2.158999
104 100 1 0.272558 0.100000 4.349037 2.945493 1.827476
105 100 1 0.272558 0.100000 -4.783714 -4.247954 1.187453
106 100 1 0.272558 0.100000 0.594393 5.632267 0.878105
107 100 1 0.272558 0.100000 -0.436281 -5.580950 0.943063
108 100 1 0.272558 0.100000 -1.721874 -4.075054 -1.761416
109 100 1 0.272558 0.100000 -2.254448 4.814436 1.340255
110 100 1 0.272558 0.100000 -5.895721 2.893906 -1.469245
111 100 1 0.272558 0.100000 -7.650629 -2.011776 -1.037719
112 100 1 0.272558 0.100000 -2.883122 1.136991 -2.308448
113 100 1 0.272558 0.100000 5.623547 -1.613631 -1.847780
114 100 1 0.272558 0.100000 3.541820 -3.458863 -1.776177
115 100 1 0.272558 0.100000 -6.977677 -1.935024 1.332151
116 100 1 0.272558 0.100000 -2.214936 4.265296 1.633936
117 100 1 0.272558 0.100000 -7.002885 -1.128226 1.517357
118 100 1 0.272558 0.100000 -2.107114 -0.263662 -2.438713
119 100 1 0.272558 0.100000 4.264902 -5.298113 0.075674
120 100 1 0.272558 0.100000 -2.357201 -5.750131 0.161355
121 100 1 0.272558 0.100000 -0.576607 4.743404 1.505597
122 100 1 0.272558 0.100000 1.853499 1.639635 2.345601
123 100 1 0.272558 0.100000 -1.914657 -4.832590 -1.402694
124 100 1 0.272558 0.100000 8.440138 1.693707 -0.570873
125 100 1 0.272558 0.100000 -5.264620 -3.944827 1.207666
126 100 1 0.272558 0.100000 1.165010 2.838609 -2.170017
127 100 1 0.272558 0.100000 -3.961756 2.622719 -1.942447
128 100 1 0.272558 0.100000 3.962042 -2.090397 -2.055880
129 100 1 0.272558 0.100000 -4.855145 -1.103498 2.043098
130 100 1 0.272558 0.100000 -0.375130 4.405447 1.709032
131 100 1 0.272558 0.100000 4.113871 -0.119260 2.234779
132 100 1 0.272558 0.100000 -7.229549 1.992415 1.236519
133 100 1 0.272558 0.100000 -8.464731 1.715993 -0.424090
134 100 1 0.272558 0.100000 -4.599578 -2.852438 1.804312
135 100 1 0.272558 0.100000 0.641072 -4.876627 -1.459502
136 100 1 0.272558 0.100000 1.467589 -0.235299 -2.469888
137 100 1 0.272558 0.100000 3.895332 -2.912694 1.889884
138 100 1 0.272558 0.100000 6.075533 -0.996048 1.783271
139 100 1 0.272558 0.100000 -8.143089 -0.104359 -1.092192
140 100 1 0.272558 0.100000 2.243388 -3.176616 -2.039956
141 100 1 0.272558 0.100000 -4.320262 4.535164 -1.091602
142 100 1 0.272558 0.100000 1.739666 -3.320363 2.010407
143 100 1 0.272558 0.100000 2.506583 5.624077 0.488472
144 100 1 0.272558 0.100000 -5.528572 -4.652183 -0.263558
145 100 1 0.272558 0.100000 -2.625519 4.545620 1.445465
146 100 1 0.272558 0.100000 -2.650402 5.179034 1.029740
147 100 1 0.272558 0.100000 -0.728509 3.127059 2.134747
148 100 1 0.272558 0.100000 -0.176216 1.101521 2.447591
149 100 1 0.272558 0.100000 4.585621 -1.413005 2.078785
150 100 1 0.272558 0.100000 4.886838 1.035306 -2.046086
151 100 1 0.272558 0.100000 0.091463 -5.925594 0.300349
152 100 1 0.272558 0.100000 -0.838392 5.384572 -1.048451
153 100 1 0.272558 0.100000 7.745289 -2.946845 0.403423
154 100 1 0.272558 0.100000 3.239081 1.645807 2.217325
155 100 1 0.272558 0.100000 3.548855 -4.795877 1.155023
156 100 1 0.272558 0.100000 -0.433929 -0.123302 2.488104
157 100 1 0.272558 0.100000 -0.814359 -1.222818 2.446692
158 100 1 0.272558 0.100000 2.174367 -0.523383 -2.407290
159 100 1 0.272558 0.100000 -5.000059 -0.218732 -2.066087
160 100 1 0.272558 0.100000 5.147578 0.500525 -2.030465
161 100 1 0.272558 0.100000 -2.970644 -2.007595 -2.196091
162 100 1 0.272558 0.100000 5.562471 -0.566806 -1.946405
163 100 1 0.272558 0.100000 5.027227 3.167827 1.587950
164 100 1 0.272558 0.100000 -6.660024 3.014581 -1.135689
165 100 1 0.272558 0.100000 -0.855619 1.054450 -2.447913
166 100 1 0.272558 0.100000 4.967488 -3.685210 1.388965
167 100 1 0.272558 0.100000 -0.337803 3.519712 -2.015533
168 100 1 0.272558 0.100000 -1.878234 3.320600 -2.032247
169 100 1 0.272558 0.100000 2.934743 5.470438 -0.671267
170 100 1 0.272558 0.100000 -3.344761 -0.064552 2.333026
171 100 1 0.272558 0.100000 -2.814327 -0.099459 2.383279
172 100 1 0.272558 0.100000 6.221437 3.951152 -0.699814
173 100 1 0.272558 0.100000 -2.575973 -4.823310 -1.326477
174 100 1 0.272558 0.100000 -6.239853 -0.455021 1.801341
175 100 1 0.272558 0.100000 -2.550581 -2.845854 -2.071492
176 100 1 0.272558 0.100000 -1.589008 5.588191 -0.837800
177 100 1 0.272558 0.100000 4.015810 0.864780 2.202303
178 100 1 0.272558 0.100000 -8.682533 1.586712 -0.117532
179 100 1 0.272558 0.100000 -6.888120 3.818223 -0.338899
180 100 1 0.272558 0.100000 -2.654041 -1.156222 2.349253
181 100 1 0.272558 0.100000 -5.568170 2.459595 1.667195
182 100 1 0.272558 0.100000 5.621650 3.884213 -1.070205
183 100 1 0.272558 0.100000 4.094991 4.914822 0.889875
184 100 1 0.272558 0.100000 7.490729 -2.665690 -0.866892
185 100 1 0.272558 0.100000 -6.719475 3.658963 0.652800
186 100 1 0.272558 0.100000 -1.071404 3.034019 2.127465
187 100 1 0.272558 0.100000 0.173608 0.210745 2.507543
188 100 1 0.272558 0.100000 0.717507 -2.784082 -2.189199
189 100 1 0.272558 0.100000 6.395751 1.247665 1.695783
190 100 1 0.272558 0.100000 -8.184788 -2.143370 0.460093
191 100 1 0.272558 0.100000 -2.270843 -5.804631 -0.245992
192 100 1 0.272558 0.100000 0.925278 3.700938 1.957382
193 100 1 0.272558 0.100000 6.098583 3.648774 1.011329
194 100 1 0.272558 0.100000 -4.715081 1.702389 -1.993845
195 100 1 0.272558 0.100000 -2.486119 -2.861453 2.072015
196 100 1 0.272558 0.100000 -7.956752 1.178331 1.090497
197 100 1 0.272558 0.100000 -2.700206 4.852842 1.249140
198 100 1 0.272558 0.100000 -8.261804 -0.632588 -0.916168
199 100 1 0.272558 0.100000 -2.952477 -1.208004 -2.316102
200 100 1 0.272558 0.100000 1.155208 -4.803145 1.445478
201 100 1 0.272558 0.100000 7.665312 -2.745450 -0.584097
202 100 1 0.272558 0.100000 5.589121 -2.677374 1.625249
203 100 1 0.272558 0.100000 7.814438 1.987348 0.936291
204 100 1 0.272558 0.100000 3.985167 -4.813565 -1.028137
205 100 1 0.272558 0.100000 8.118394 -2.175528 0.527103
206 100 1 0.272558 0.100000 -2.705613 4.623530 -1.392287
207 100 1 0.272558 0.100000 -2.108556 -4.536517 1.510340
208 100 1 0.272558 0.100000 5.857275 0.031651 1.883719
209 100 1 0.272558 0.100000 -6.715339 -3.893655 -0.459467
210 100 1 0.272558 0.100000 -8.421116 1.469111 0.633244
211 100 1 0.272558 0.100000 -1.781485 0.197101 2.437644
212 100 1 0.272558 0.100000 -1.051941 5.802868 0.507841
213 100 1 0.272558 0.100000 -6.353915 -2.711850 -1.337387
214 100 1 0.272558 0.100000 6.617036 1.523640 -1.558395
215 100 1 0.272558 0.100000 2.339567 4.325028 -1.615173
216 100 1 0.272558 0.100000 -0.371094 -5.455076 -1.016995
217 100 1 0.272558 0.100000 -3.265092 5.561166 -0.098812
218 100 1 0.272558 0.100000 -1.057778 0.361147 2.468823
219 100 1 0.272558 0.100000 6.259857 4.229140 -0.237080
220 100 1 0.272558 0.100000 -1.972953 1.717506 -2.325004
221 100 1 0.272558 0.100000 6.756000 -3.860612 -0.285952
222 100 1 0.272558 0.100000 -0.113082 -0.660283 2.474572
223 100 1 0.272558 0.100000 -3.606826 3.077710 -1.911625
224 100 1 0.272558 0.100000 -6.235724 0.718062 1.763511
225 100 1 0.272558 0.100000 2.402745 -4.298690 1.598947
226 100 1 0.272558 0.100000 1.046466 -0.135405 -2.477388
227 100 1 0.272558 0.100000 -1.702075 0.905569 -2.414618
228 100 1 0.272558 0.100000 -2.678582 1.573583 -2.283196
229 100 1 0.272558 0.100000 5.908035 2.890623 -1.433476
230 100 1 0.272558 0.100000 5.040670 -4.325791 -1.046673
231 100 1 0.272558 0.100000 -4.468091 4.701910 0.954144
232 100 1 0.272558 0.100000 1.074336 -4.551056 -1.619054
233 100 1 0.272558 0.100000 -6.408386 -3.168912 1.132411
234 100 1 0.272558 0.100000 5.043976 -3.082628 -1.642603
235 100 1 0.272558 0.100000 5.368010 1.321682 -1.920169
236 100 1 0.272558 0.100000 5.702669 1.002500 -1.888541
237 100 1 0.272558 0.100000 2.316050 2.491185 2.178851
238 100 1 0.272558 0.100000 -7.970196 -1.238595 -1.062532
239 100 1 0.272558 0.100000 6.355463 -3.106247 -1.184952
240 100 1 0.272558 0.100000 -3.945359 -0.992823 -2.222375
241 100 1 0.272558 0.100000 1.349440 1.919438 2.347588
242 100 1 0.272558 0.100000 -8.063013 -2.061689 -0.704409
243 100 1 0.272558 0.100000 -1.102377 4.637341 1.574313
244 100 1 0.272558 0.100000 7.183109 1.804577 -1.318967
245 100 1 0.272558 0.100000 -4.068987 -5.021805 0.726415
246 100 1 0.272558 0.100000 7.473691 2.061597 1.071709
247 100 1 0.272558 0.100000 -7.038776 1.254666 1.472205
248 100 1 0.272558 0.100000 4.321373 -3.474170 -1.628921
249 100 1 0.272558 0.100000 3.094763 -5.519510 0.483187
250 100 1 0.272558 0.100000 -3.832380 2.332329 2.031380
251 100 1 0.272558 0.100000 -0.190131 4.968396 -1.392507
252 100 1 0.272558 0.100000 -5.482709 4.135054 -0.999673
253 100 1 0.272558 0.100000 -3.243426 5.211027 0.880725
254 100 1 0.272558 0.100000 2.138503 -1.204984 -2.384119
255 100 1 0.272558 0.100000 1.511949 2.062795 -2.316752
256 100 1 0.272558 0.100000 -4.213097 -0.624396 2.210254
257 100 1 0.272558 0.100000 3.705943 -5.372187 0.482517
258 100 1 0.272558 0.100000 -4.233932 -2.699367 1.886568
259 100 1 0.272558 0.100000 -0.076400 2.492229 -2.287532
260 100 1 0.272558 0.100000 -0.902211 -1.798574 2.369195
261 100 1 0.272558 0.100000 -2.890353 3.846880 -1.727119
262 100 1 0.272558 0.100000 -3.365928 -4.689748 1.251858
263 100 1 0.272558 0.100000 2.608700 -5.162771 1.032929
264 100 1 0.272558 0.100000 0.503657 3.377369 -2.051506
265 100 1 0.272558 0.100000 -5.593499 -0.378426 -1.964606
266 100 1 0.272558 0.100000 -9.016999 0.130924 0.183824
267 100 1 0.272558 0.100000 -4.163637 0.924797 -2.195955
268 100 1 0.272558 0.100000 -8.667344 0.358696 -0.697002
269 100 1 0.272558 0.100000 5.055664 -4.260376 1.033836
270 100 1 0.272558 0.100000 -3.693320 -0.888427 2.237386
271 100 1 0.272558 0.100000 4.932343 -0.007702 -2.079713
272 100 1 0.272558 0.100000 0.030365 4.716034 -1.563819
273 100 1 0.272558 0.100000 4.986688 0.136517 2.084880
274 100 1 0.272558 0.100000 -3.089655 -5.596530 -0.131712
275 100 1 0.272558 0.100000 -7.220553 -1.672490 -1.305309
276 100 1 0.272558 0.100000 6.291646 -2.712282 1.366757
277 100 1 0.272558 0.100000 2.696120 -3.310534 -1.930763
278 100 1 0.272558 0.100000 2.203357 -4.584630 1.483068
279 100 1 0.272558 0.100000 -3.523037 3.715444 -1.713070
280 100 1 0.272558 0.100000 1.486915 0.481954 2.461161
281 100 1 0.272558 0.100000 1.414698 -5.832460 0.367636
282 100 1 0.272558 0.100000 -6.672369 1.932343 -1.452922
283 100 1 0.272558 0.100000 3.005006 5.587512 0.275097
284 100 1 0.272558 0.100000 -7.846394 2.843319 0.104498
285 100 1 0.272558 0.100000 1.063578 1.214434 2.422003
286 100 1 0.272558 0.100000 -2.835758 3.331275 -1.907859
287 100 1 0.272558 0.100000 3.046947 -2.346300 2.130762
288 100 1 0.272558 0.100000 -4.637969 -2.625829 -1.854026
289 100 1 0.272558 0.100000 3.761829 -1.793982 -2.155215
290 100 1 0.272558 0.100000 -2.332833 1.559849 -2.335733
291 100 1 0.272558 0.100000 1.958667 5.875723 -0.100595
292 100 1 0.272558 0.100000 -0.775464 2.274585 2.317186
293 100 1 0.272558 0.100000 -8.024650 0.837204 1.050078
294 100 1 0.272558 0.100000 3.179264 -0.724005 2.310672
295 100 1 0.272558 0.100000 8.391027 -1.752723 -0.472016
296 100 1 0.272558 0.100000 6.261280 0.377031 -1.774349
297 100 1 0.272558 0.100000 5.517923 1.168522 1.905405
298 100 1 0.272558 0.100000 3.496418 -2.032167 -2.128669
299 100 1 0.272558 0.100000 -1.883645 2.094609 2.278128
300 100 1 0.272558 0.100000 -2.288205 -1.017675 -2.370423
301 100 1 0.272558 0.100000 0.618152 2.357734 2.295983
302 100 1 0.272558 0.100000 -1.137102 3.341057 -2.040905
303 100 1 0.272558 0.100000 8.608294 1.616736 0.016568
304 100 1 0.272558 0.100000 -3.924853 5.082447 0.718976
305 100 1 0.272558 0.100000 7.403093 -0.702687 -1.376819
306 100 1 0.272558 0.100000 -0.297244 4.193144 -1.769771
307 100 1 0.272558 0.100000 7.169574 2.599396 -1.034813
308 100 1 0.272558 0.100000 -3.576480 -2.204532 2.099014
309 100 1 0.272558 0.100000 -2.719710 -2.379551 -2.163569
310 100 1 0.272558 0.100000 -3.346208 -5.246670 0.804511
311 100 1 0.272558 0.100000 -5.454477 3.505444 -1.329160
312 100 1 0.272558 0.100000 -0.436812 -2.225948 -2.309252
313 100 1 0.272558 0.100000 -8.379442 -0.315941 -0.936202
314 100 1 0.272558 0.100000 -3.572336 -1.485846 2.197541
315 100 1 0.272558 0.100000 4.603940 3.897428 1.390814
316 100 1 0.272558 0.100000 2.622723 -4.624909 -1.402318
317 100 1 0.272558 0.100000 -3.043576 -4.928807 1.140546
318 100 1 0.272558 0.100000 3.147553 0.319067 2.341596
319 100 1 0.272558 0.100000 -3.047630 0.135675 -2.346189
320 100 1 0.272558 0.100000 -6.419885 3.293772 -1.076199
321 100 1 0.272558 0.100000 -6.417099 -2.353269 1.429571
322 100 1 0.272558 0.100000 -6.060150 1.556589 1.719907
323 100 1 0.272558 0.100000 -2.983536 5.589832 -0.365357
324 100 1 0.272558 0.100000 -0.489019 5.166096 -1.272355
325 100 1 0.272558 0.100000 4.575447 3.576054 1.546679
326 100 1 0.272558 0.100000 -4.150524 -4.928625 -0.862151
327 100 1 0.272558 0.100000 0.668994 3.947249 1.857003
328 100 1 0.272558 0.100000 -1.883916 4.177659 1.700700
329 100 1 0.272558 0.100000 0.620629 -3.690394 -1.947730
330 100 1 0.272558 0.100000 0.711149 -5.936965 -0.372329
331 100 1 0.272558 0.100000 6.642602 -0.087243 -1.673258
332 100 1 0.272558 0.100000 -3.502317 1.048455 -2.274718
333 100 1 0.272558 0.100000 -1.800069 4.258008 -1.681315
334 100 1 0.272558 0.100000 -4.738513 -3.238792 -1.628841
335 100 1 0.272558 0.100000 -3.946582 0.698267 2.213773
336 100 1 0.272558 0.100000 7.500740 -3.063498 -0.557258
337 100 1 0.272558 0.100000 3.005197 -2.745392 2.046260
338 100 1 0.272558 0.100000 5.618437 4.305499 0.780570
339 100 1 0.272558 0.100000 -2.649818 4.129262 -1.654528
340 100 1 0.272558 0.100000 1.483287 -2.831535 2.150725
341 100 1 0.272558 0.100000 0.885634 -4.267308 1.757487
342 100 1 0.272558 0.100000 3.967714 2.859646 1.896543
343 100 1 0.272558 0.100000 6.794857 0.747112 -1.593379
344 100 1 0.272558 0.100000 -0.176401 -1.154790 -2.447377
345 100 1 0.272558 0.100000 -0.295886 -1.897592 -2.371618
346 100 1 0.272558 0.100000 -3.764591 -2.936814 1.900152
347 100 1 0.272558 0.100000 2.299723 -3.017817 2.075442
348 100 1 0.272558 0.100000 -4.335229 -5.187434 0.266828
349 100 1 0.272558 0.100000 -2.793764 -0.874329 -2.346194
350 100 1 0.272558 0.100000 3.464294 4.922366 1.080048
351 100 1 0.272558 0.100000 -2.779091 3.640894 1.838382
352 100 1 0.272558 0.100000 -5.714397 -2.043440 -1.746349
353 100 1 0.272558 0.100000 6.264511 -0.106976 -1.801208
354 100 1 0.272558 0.100000 5.433890 -2.826278 -1.611402
355 100 1 0.272558 0.100000 -2.252167 -4.250322 1.665911
356 100 1 0.272558 0.100000 -6.836190 3.781382 0.326305
357 100 1 0.272558 0.100000 -2.153479 -3.828784 1.825338
358 100 1 0.272558 0.100000 2.937526 0.615465 -2.345972
359 100 1 0.272558 0.100000 -4.949415 -4.130526 -1.162017
360 100 1 0.272558 0.100000 -5.464262 -0.636814 1.961254
361 100 1 0.272558 0.100000 1.844698 -2.842395 2.147304
362 100 1 0.272558 0.100000 4.864210 -4.983073 -0.387393
363 100 1 0.272558 0.100000 6.889518 -3.629096 -0.567141
364 100 1 0.272558 0.100000 2.104162 -3.326427 1.997268
365 100 1 0.272558 0.100000 3.807157 1.170744 2.219572
366 100 1 0.272558 0.100000 3.767804 0.772998 -2.239825
367 100 1 0.272558 0.100000 -6.488305 -1.521151 -1.600834
368 100 1 0.272558 0.100000 -6.894952 -3.164568 -0.954827
369 100 1 0.272558 0.100000 1.514971 0.519243 -2.463929
370 100 1 0.272558 0.100000 0.979174 2.307002 2.293467
371 100 1 0.272558 0.100000 4.547319 1.117505 -2.099384
372 100 1 0.272558 0.100000 -3.717118 -4.144443 1.492697
373 100 1 0.272558 0.100000 -3.214550 -0.347502 -2.324927
374 100 1 0.272558 0.100000 3.886826 3.992451 1.513935
375 100 1 0.272558 0.100000 -5.868112 -1.159248 1.820288
376 100 1 0.272558 0.100000 -0.543070 5.939088 -0.175215
377 100 1 0.272558 0.100000 4.585263 1.974126 -1.982208
378 100 1 0.272558 0.100000 -6.264207 0.112977 1.789849
379 100 1 0.272558 0.100000 -4.936605 -4.817334 -0.580292
380 100 1 0.272558 0.100000 -2.361656 0.003468 -2.401679
381 100 1 0.272558 0.100000 -1.443550 -4.091002 1.799143
382 100 1 0.272558 0.100000 7.892060 0.801112 -1.179390
383 100 1 0.272558 0.100000 4.081268 -0.025122 -2.218419
384 100 1 0.272558 0.100000 -7.630992 1.188101 1.203304
385 100 1 0.272558 0.100000 -8.078835 1.655723 0.858842
386 100 1 0.272558 0.100000 -1.438835 3.540771 -1.965094
387 100 1 0.272558 0.100000 -3.670521 2.233444 -2.080493
388 100 1 0.272558 0.100000 -3.098438 -4.199478 1.578209
389 100 1 0.272558 0.100000 6.647324 0.325384 -1.690270
390 100 1 0.272558 0.100000 4.470653 -1.013240 -2.137837
391 100 1 0.272558 0.100000 -1.444475 4.649390 1.512080
392 100 1 0.272558 0.100000 -5.961751 4.375158 0.356718
393 100 1 0.272558 0.100000 -3.675075 -2.538560 -2.017435
394 100 1 0.272558 0.100000 -3.866024 1.874559 -2.103619
395 100 1 0.272558 0.100000 -6.988891 -3.379073 -0.653483
396 100 1 0.272558 0.100000 3.249145 5.602585 -0.201624
397 100 1 0.272558 0.100000 -8.140959 2.428969 0.211853
398 100 1 0.272558 0.100000 -5.720347 -0.320292 1.916049
399 100 1 0.272558 0.100000 -1.586817 3.158818 -2.062484
400 100 1 0.272558 0.100000 -0.145564 5.904641 -0.444594
401 100 1 0.272558 0.100000 2.499154 2.984348 -2.039519
402 100 1 0.272558 0.100000 1.281064 1.562916 -2.388973
403 100 1 0.272558 0.100000 6.240838 -3.897986 0.736984
404 100 1 0.272558 0.100000 -5.060749 -3.387820 -1.495589
405 100 1 0.272558 0.100000 -4.076371 -4.651745 -1.106367
406 100 1 0.272558 0.100000 2.021340 5.060833 -1.203498
407 100 1 0.272558 0.100000 1.338559 2.521095 -2.240823
408 100 1 0.272558 0.100000 -7.719017 -2.988011 -0.301546
409 100 1 0.272558 0.100000 -7.685857 2.195808 -0.888242
410 100 1 0.272558 0.100000 0.479403 2.680702 2.219354
411 100 1 0.272558 0.100000 -4.084312 5.368515 0.065663
412 100 1 0.272558 0.100000 -1.879232 -0.537343 -2.436617
413 100 1 0.272558 0.100000 -5.232722 2.428075 1.778646
414 100 1 0.272558 0.100000 1.509409 -2.063051 2.295241
415 100 1 0.272558 0.100000 3.470554 3.565876 -1.751178
416 100 1 0.272558 0.100000 -1.610414 -2.603366 -2.195751
417 100 1 0.272558 0.100000 -1.176504 -5.833071 -0.425755
418 100 1 0.272558 0.100000 2.296904 3.250307 -2.013676
419 100 1 0.272558 0.100000 2.857348 4.577665 -1.429060
420 100 1 0.272558 0.100000 -1.573091 1.258802 2.398364
421 100 1 0.272558 0.100000 7.881237 -0.942392 1.125179
422 100 1 0.272558 0.100000 5.860113 -2.103608 1.687655
423 100 1 0.272558 0.100000 -7.146323 -2.979931 -0.821927
424 100 1 0.272558 0.100000 0.339035 -5.676260 -0.845404
425 100 1 0.272558 0.100000 -3.403786 -4.360514 1.423789
426 100 1 0.272558 0.100000 5.811608 -1.648779 1.764634
427 100 1 0.272558 0.100000 3.020280 -0.440383 -2.339655
428 100 1 0.272558 0.100000 0.868511 0.178918 2.485770
429 100 1 0.272558 0.100000 7.621635 1.218978 1.207393
430 100 1 0.272558 0.100000 -0.428048 -0.906610 -2.463289
431 100 1 0.272558 0.100000 6.147776 -1.008821 -1.788901
432 100 1 0.272558 0.100000 -4.831830 4.426671 0.992959
433 100 1 0.272558 0.100000 5.195273 -3.021518 1.608181
434 100 1 0.272558 0.100000 6.431788 -1.372419 -1.668336
435 100 1 0.272558 0.100000 2.718961 3.317363 -1.933339
436 100 1 0.272558 0.100000 -6.805540 -3.657124 0.555058
437 100 1 0.272558 0.100000 6.464770 0.553413 1.740689
438 100 1 0.272558 0.100000 0.332523 5.131007 1.269574
439 100 1 0.272558 0.100000 0.986649 0.518892 2.485776
440 100 1 0.272558 0.100000 2.916863 2.651781 -2.081377
441 100 1 0.272558 0.100000 -1.917594 -5.668938 -0.573180
442 100 1 0.272558 0.100000 7.449977 3.408772 -0.021517
443 100 1 0.272558 0.100000 8.262517 2.322140 -0.350516
444 100 1 0.272558 0.100000 2.365418 -2.657084 2.127243
445 100 1 0.272558 0.100000 -8.308913 -1.869587 -0.516994
446 100 1 0.272558 0.100000 0.925786 0.878687 2.466408
447 100 1 0.272558 0.100000 -3.677122 -0.130407 2.268570
448 100 1 0.272558 0.100000 -6.055938 -4.248256 0.559494
449 100 1 0.272558 0.100000 3.697458 4.827823 -1.052159
450 100 1 0.272558 0.100000 6.390368 0.895617 1.705248
451 100 1 0.272558 0.100000 4.701556 -4.443604 -1.034938
452 100 1 0.272558 0.100000 7.905904 0.945212 1.101915
453 100 1 0.272558 0.100000 0.913862 1.523560 -2.398870
454 100 1 0.272558 0.100000 -1.745312 -1.865303 2.340059
455 100 1 0.272558 0.100000 -6.712403 2.479439 1.286740
456 100 1 0.272558 0.100000 -3.589186 0.537039 2.268888
457 100 1 0.272558 0.100000 2.332877 1.678265 -2.313586
458 100 1 0.272558 0.100000 1.876729 1.443383 -2.363315
459 100 1 0.272558 0.100000 -8.070096 0.600162 -1.101521
460 100 1 0.272558 0.100000 -4.705768 -0.613536 2.100617
461 100 1 0.272558 0.100000 -5.430286 3.489133 1.367381
462 100 1 0.272558 0.100000 -5.263309 4.809480 -0.210769
463 100 1 0.272558 0.100000 2.747373 -3.962006 1.717486
464 100 1 0.272558 0.100000 -3.168627 3.189235 -1.919001
465 100 1 0.272558 0.100000 7.927114 -1.687732 -0.934293
466 100 1 0.272558 0.100000 5.251324 0.958874 -1.993608
467 100 1 0.272558 0.100000 -2.727062 1.944474 -2.230275
468 100 1 0.272558 0.100000 -2.365656 -4.370268 -1.566573
469 100 1 0.272558 0.100000 1.778048 -5.800985 0.321463
470 100 1 0.272558 0.100000 -7.285177 -3.545755 0.143269
471 100 1 0.272558 0.100000 -4.315832 -5.265920 -0.216255
472 100 1 0.272558 0.100000 -5.259993 -3.613728 1.341213
473 100 1 0.272558 0.100000 5.588128 -4.188144 0.861378
474 100 1 0.272558 0.100000 8.006175 -1.760416 0.894867
475 100 1 0.272558 0.100000 -4.598171 -2.232869 1.920499
476 100 1 0.272558 0.100000 3.229884 -4.650871 1.277913
477 100 1 0.272558 0.100000 3.109410 -4.185703 1.554910
478 100 1 0.272558 0.100000 -1.970623 3.062213 2.091635
479 100 1 0.272558 0.100000 3.001751 5.112609 0.980579
480 100 1 0.272558 0.100000 -8.618053 -1.206451 0.455624
481 100 1 0.272558 0.100000 -7.373697 3.277661 0.454889
482 100 1 0.272558 0.100000 -0.431715 -4.601679 -1.615212
483 100 1 0.272558 0.100000 -4.485228 1.511353 2.061241
484 100 1 0.272558 0.100000 -3.295765 2.827651 1.990687
485 100 1 0.272558 0.100000 -6.946436 -3.745054 0.137778
486 100 1 0.272558 0.100000 2.915688 5.638935 -0.099561
487 100 1 0.272558 0.100000 8.575686 0.191707 -0.721377
488 100 1 0.272558 0.100000 1.917128 3.225829 -2.026359
489 100 1 0.272558 0.100000 5.433376 -0.162976 -1.985363
490 100 1 0.272558 0.100000 1.255219 5.787695 0.567708
491 100 1 0.272558 0.100000 -0.719065 -3.813167 1.926081
492 100 1 0.272558 0.100000 -0.967567 0.230911 -2.474520
493 100 1 0.272558 0.100000 -7.477032 3.264583 -0.141323
494 100 1 0.272558 0.100000 -1.850413 -3.323832 -1.999934
495 100 1 0.272558 0.100000 -3.226345 4.333650 1.476103
496 100 1 0.272558 0.100000 -6.663249 -2.421944 -1.313301
497 100 1 0.272558 0.100000 -0.194819 0.235353 2.488950
498 100 1 0.272558 0.100000 -4.532639 -4.519475 1.080494
499 100 1 0.272558 0.100000 -6.305708 -0.193127 -1.796224
500 100 1 0.272558 0.100000 -1.016802 -0.633708 -2.460548
501 100 1 0.272558 0.100000 -5.096605 2.109886 1.845783
502 100 1 0.272558 0.100000 -0.436224 -2.513930 2.255122
503 100 1 0.272558 0.100000 0.494870 -1.493295 2.407865
504 100 1 0.272558 0.100000 -7.056207 2.991206 -0.893897
505 100 1 0.272558 0.100000 2.976053 1.101140 -2.317672
506 100 1 0.272558 0.100000 -7.769634 2.772244 -0.441551
507 100 1 0.272558 0.100000 -6.761598 -0.871364 -1.628801
508 100 1 0.272558 0.100000 1.045233 -0.378809 2.481138
509 100 1 0.272558 0.100000 -3.052214 -5.232715 -0.854636
510 100 1 0.272558 0.100000 2.029036 -0.862070 -2.416172
511 100 1 0.272558 0.100000 5.031905 4.725794 0.690480
512 100 1 0.272558 0.100000 0.661020 3.051580 -2.141700
513 100 1 0.272558 0.100000 7.584386 0.139236 1.346251
514 100 1 0.272558 0.100000 -6.608719 0.895401 1.670518
515 100 1 0.272558 0.100000 3.481909 1.957134 2.153417
516 100 1 0.272558 0.100000 -0.622240 1.507743 -2.400791
517 100 1 0.272558 0.100000 -1.768019 -3.327294 2.034241
518 100 1 0.272558 0.100000 -4.723118 4.834305 -0.643417
519 100 1 0.272558 0.100000 -8.657410 1.255810 0.435894
520 100 1 0.272558 0.100000 5.326467 -4.356783 -0.839490
521 100 1 0.272558 0.100000 3.165305 -5.085193 -0.972220
522 100 1 0.272558 0.100000 8.433845 -2.023856 0.017921
523 100 1 0.272558 0.100000 -3.236367 0.795930 2.297974
524 100 1 0.272558 0.100000 2.879493 3.005109 -2.000320
525 100 1 0.272558 0.100000 5.949486 -2.734233 1.471944
526 100 1 0.272558 0.100000 0.182528 -2.250591 2.329096
527 100 1 0.272558 0.100000 6.522097 4.089371 0.302794
528 100 1 0.272558 0.100000 -5.297944 4.746100 0.334745