ITEM: TIMESTEP
200
ITEM: NUMBER OF ATOMS
5662
ITEM: BOX BOUNDS pp pp pp
-36.000000 36.000000
-36.000000 36.000000
-36.000000 36.000000
ITEM: ATOMS id type pointer radius Transparency xu yu zu vx vy vz ox oy oz
0 1108 1108 0.272558 0.850000 -5.153028 3.407305 -1.469040 16.613932 -22.214524 67.426215 0.000000 0.000000 0.000000
1 1108 1108 0.272558 0.850000 7.587392 -1.069574 1.298466 -17.871218 5.151093 -39.868739 0.000000 0.000000 0.000000
2 1108 1108 0.272558 0.850000 -6.983509 -0.383031 1.570409 20.780055 -2.571841 -50.880875 0.000000 0.000000 0.000000
3 1108 1108 0.272558 0.850000 -5.109070 1.016683 -2.035969 8.688780 -3.900332 40.944397 0.000000 0.000000 0.000000
4 1108 1108 0.272558 0.850000 -0.306805 -3.798369 1.936277 0.255923 21.663358 -57.221481 0.000000 0.000000 0.000000
5 1108 1108 0.272558 0.000465 -1.399458 -2.157916 -2.330748 2.861785 8.640848 59.337164 0.000000 0.000000 0.000000
6 1108 1108 0.272558 0.850000 -0.147106 -4.798998 -1.525527 1.099631 45.129079 72.799617 0.000000 0.000000 0.000000
7 1108 1108 0.272558 0.850000 0.904888 -4.278466 -1.762794 -2.217247 19.003247 39.936862 0.000000 0.000000 0.000000
8 1108 1108 0.272558 0.000801 6.455069 0.860771 -1.730360 2.168578 -1.766675 30.704857 0.000000 0.000000 0.000000
9 1108 1108 0.272558 0.001437 -7.177860 -2.533119 1.070960 32.812509 21.762163 -59.995623 0.000000 0.000000 0.000000
10 1108 1108 0.272558 0.850000 -5.915908 -2.829214 -1.457253 15.864934 21.352426 59.892040 0.000000 0.000000 0.000000
11 1108 1108 0.272558 0.000819 -4.753934 2.695105 1.817507 12.226027 -16.893825 -61.857793 0.000000 0.000000 0.000000
12 1108 1108 0.272558 0.002030 -8.176539 2.134515 0.646727 64.800379 -47.076491 -52.766864 0.000000 0.000000 0.000000
13 1108 1108 0.272558 0.850000 -5.767086 1.780042 1.754975 11.935664 -6.099667 -42.539095 0.000000 0.000000 0.000000
14 1108 1108 0.272558 0.850000 6.071745 -3.518558 1.113843 -25.219356 29.327551 -55.704552 0.000000 0.000000 0.000000
15 1108 1108 0.272558 0.850000 -5.684112 -4.568013 0.310881 20.360927 35.414609 -15.455598 0.000000 0.000000 0.000000
16 1108 1108 0.272558 0.850000 6.789120 0.171317 1.671312 -13.599349 -0.746251 -48.337521 0.000000 0.000000 0.000000
17 1108 1108 0.272558 0.001399 0.226008 -2.563949 -2.320261 -2.202726 11.362911 92.971052 0.000000 0.000000 0.000000
18 1108 1108 0.272558 0.850000 5.954406 -1.676069 -1.737068 -11.037725 6.156370 40.359041 0.000000 0.000000 0.000000
19 1108 1108 0.272558 0.000516 5.492621 -4.738483 -0.061127 -27.637729 55.768001 4.810126 0.000000 0.000000 0.000000
20 1108 1108 0.272558 0.850000 0.294729 4.511562 -1.646822 7.525352 -22.771279 23.991773 0.000000 0.000000 0.000000
21 1108 1108 0.272558 0.850000 -2.988136 5.273942 -0.921204 19.600133 -51.850715 39.883784 0.000000 0.000000 0.000000
22 1108 1108 0.272558 0.007195 -5.622039 4.511954 0.514465 22.421577 -42.059912 -15.435958 0.000000 0.000000 0.000000
23 1108 1108 0.272558 0.035314 -3.030265 -0.375077 2.358631 13.757474 -9.433974 -26.777034 0.000000 0.000000 0.000000
24 1108 1108 0.272558 0.850000 1.687673 4.927811 -1.330911 1.484328 -23.122961 45.447998 0.000000 0.000000 0.000000
25 1108 1108 0.272558 0.850000 6.567658 3.637621 -0.842856 -19.759663 -23.687047 31.010138 0.000000 0.000000 0.000000
26 1108 1108 0.272558 0.850000 -6.204656 -3.244586 -1.192917 22.132868 23.510857 52.005754 0.000000 0.000000 0.000000
27 1108 1108 0.272558 0.001327 4.640763 -0.216122 2.232465 -13.249709 -8.563770 -91.950675 0.000000 0.000000 0.000000
28 1108 1108 0.272558 0.850000 2.693591 -0.985048 2.348996 -11.215896 8.175116 -45.631016 0.000000 0.000000 0.000000
29 1108 1108 0.272558 0.850000 7.718850 1.430500 -1.191037 -34.535195 -20.660452 70.786507 0.000000 0.000000 0.000000
30 1108 1108 0.272558 0.850000 0.602992 -4.689294 1.546538 -0.469975 20.727625 -38.320451 0.000000 0.000000 0.000000
31 1108 1108 0.272558 0.850000 7.448251 -3.082187 0.572312 -52.137882 63.093661 -50.149108 0.000000 0.000000 0.000000
32 1108 1108 0.272558 0.850000 -3.560972 1.716555 -2.195455 2.753006 -1.632628 43.994635 0.000000 0.000000 0.000000
33 1108 1108 0.272558 0.000224 -4.644851 -4.843600 0.698227 9.102381 27.809604 -22.661159 0.000000 0.000000 0.000000
34 1108 1108 0.272558 0.850000 -5.648363 -3.154178 1.476447 17.505293 25.431367 -59.859921 0.000000 0.000000 0.000000
35 1108 1108 0.272558 0.850000 -1.008581 -4.223066 -1.749025 3.040552 16.346680 41.648309 0.000000 0.000000 0.000000
36 1108 1108 0.272558 0.850000 -0.379591 3.050630 2.165754 -0.892978 -21.268315 -65.727984 0.000000 0.000000 0.000000
37 1108 1108 0.272558 0.850000 2.304643 5.168884 1.081706 -6.616423 -30.382777 -41.853619 0.000000 0.000000 0.000000
38 1108 1108 0.272558 0.850000 -3.487938 4.540525 1.344925 10.519082 -36.437914 -41.074132 0.000000 0.000000 0.000000
39 1108 1108 0.272558 0.850000 -1.274912 -4.636567 1.541442 2.804500 23.255771 -37.598203 0.000000 0.000000 0.000000
40 1108 1108 0.272558 0.850000 6.179538 3.237463 -1.201900 -15.567126 -17.502823 36.489735 0.000000 0.000000 0.000000
41 1108 1108 0.272558 0.850000 1.341862 3.930600 -1.876602 -0.288796 -27.095566 66.937270 0.000000 0.000000 0.000000
42 1108 1108 0.272558 0.850000 2.001708 4.275883 1.707833 -8.211469 -23.219291 -46.572203 0.000000 0.000000 0.000000
43 1108 1108 0.272558 0.850000 7.314798 0.743649 -1.408448 -25.494174 -3.182526 39.564898 0.000000 0.000000 0.000000
44 1108 1108 0.272558 0.850000 -2.528634 3.470994 -1.939903 7.466671 -13.387463 44.306756 0.000000 0.000000 0.000000
45 1108 1108 0.272558 0.850000 6.750715 -3.930194 0.200433 -24.464262 34.595887 -8.138278 0.000000 0.000000 0.000000
46 1108 1108 0.272558 0.000337 -8.285319 -1.066805 0.883969 40.300663 10.763000 -55.283513 0.000000 0.000000 0.000000
47 1108 1108 0.272558 0.850000 0.038460 3.835239 -1.922261 -4.190263 -17.458370 42.583617 0.000000 0.000000 0.000000
48 1108 1108 0.272558 0.001199 8.870912 0.896339 0.347159 -82.962716 -17.684746 -33.800889 0.000000 0.000000 0.000000
49 1108 1108 0.272558 0.850000 -2.460361 5.477632 -0.834169 8.908193 -47.714594 33.872892 0.000000 0.000000 0.000000
50 1108 1108 0.272558 0.850000 -4.988415 3.405873 1.537963 11.544813 -15.164340 -42.049241 0.000000 0.000000 0.000000
51 1108 1108 0.272558 0.850000 1.522184 0.860004 2.464469 -15.326825 -6.570793 -65.783407 0.000000 0.000000 0.000000
52 1108 1108 0.272558 0.850000 3.828617 5.218044 -0.679004 -25.589790 -47.911808 31.714317 0.000000 0.000000 0.000000
53 1108 1108 0.272558 0.000615 4.911412 5.065132 -0.196783 -28.175838 -64.202253 12.122938 0.000000 0.000000 0.000000
54 1108 1108 0.272558 0.850000 -7.271749 0.214491 -1.461524 6.674475 -13.003898 58.029871 0.000000 0.000000 0.000000
55 1108 1108 0.272558 0.850000 -1.363595 -3.981541 -1.822249 4.979292 9.453049 40.230279 0.000000 0.000000 0.000000
56 1108 1108 0.272558 0.850000 -5.654067 -3.870020 -1.120913 26.821584 30.661055 55.812703 0.000000 0.000000 0.000000
57 1108 1108 0.272558 0.850000 -7.590612 0.876130 1.324203 17.012412 0.293749 -62.796872 0.000000 0.000000 0.000000
58 1108 1108 0.272558 0.014459 -0.082519 2.133892 2.387635 -6.910025 -36.131379 -114.809166 0.000000 0.000000 0.000000
59 1108 1108 0.272558 0.850000 -4.067922 -3.268530 -1.782791 11.140897 16.871045 68.886173 0.000000 0.000000 0.000000
60 1108 1108 0.272558 0.850000 -0.243221 4.890048 1.483127 -2.250520 -15.038262 -32.090294 0.000000 0.000000 0.000000
61 1108 1108 0.272558 0.850000 -2.521846 -2.244866 2.208034 1.215892 8.729853 -43.098706 0.000000 0.000000 0.000000
62 1108 1108 0.272558 0.002675 -2.631976 0.939323 -2.385553 6.223329 -2.914799 38.829269 0.000000 0.000000 0.000000
63 1108 1108 0.272558 0.850000 -4.522749 -3.290237 1.659042 13.789056 11.698779 -44.440086 0.000000 0.000000 0.000000
64 1108 1108 0.272558 0.850000 3.132861 -5.060542 1.021149 -16.211057 27.971150 -40.355546 0.000000 0.000000 0.000000
65 1108 1108 0.272558 0.011810 4.732216 -5.084727 0.113648 -26.170845 59.833053 -6.085766 0.000000 0.000000 0.000000
66 1108 1108 0.272558 0.137704 -7.502292 -3.302147 0.020098 54.807539 58.167031 -1.252365 0.000000 0.000000 0.000000
67 1108 1108 0.272558 0.850000 -3.327417 4.062031 -1.591669 6.149768 -17.396863 40.258501 0.000000 0.000000 0.000000
68 1108 1108 0.272558 0.850000 -3.843937 5.142131 -0.698272 13.451937 -46.504209 26.857495 0.000000 0.000000 0.000000
69 1108 1108 0.272558 0.002662 0.851544 4.258435 1.765863 -7.177580 -32.410060 -67.109907 0.000000 0.000000 0.000000
70 1108 1108 0.272558 0.850000 4.519216 5.078451 -0.544776 -18.791993 -61.753903 36.522020 0.000000 0.000000 0.000000
71 1108 1108 0.272558 0.850000 1.416048 1.214753 -2.442169 -1.616563 -2.109720 62.695650 0.000000 0.000000 0.000000
72 1108 1108 0.272558 0.850000 7.713676 2.894797 -0.471851 -29.997404 -31.803579 23.023927 0.000000 0.000000 0.000000
73 1108 1108 0.272558 0.850000 -1.521240 -1.387145 -2.410559 3.444387 6.380781 40.362239 0.000000 0.000000 0.000000
74 1108 1108 0.272558 0.850000 -0.503489 0.966690 -2.465528 -0.265570 -4.658363 44.514176 0.000000 0.000000 0.000000
75 1108 1108 0.272558 0.001926 -0.651301 -3.138542 2.263383 10.838248 40.165269 -64.440712 0.000000 0.000000 0.000000
76 1108 1108 0.272558 0.850000 -2.060700 0.945681 -2.414546 3.529194 -2.182071 43.018014 0.000000 0.000000 0.000000
77 1108 1108 0.272558 0.850000 -4.390249 -0.042129 -2.207472 14.890759 4.010786 53.048003 0.000000 0.000000 0.000000
78 1108 1108 0.272558 0.850000 1.262497 2.899427 2.164799 -1.259789 -18.348425 -59.845900 0.000000 0.000000 0.000000
79 1108 1108 0.272558 0.850000 -1.362440 -4.775165 -1.470667 2.488671 20.382427 37.107971 0.000000 0.000000 0.000000
80 1108 1108 0.272558 0.850000 -5.928015 2.342186 -1.614495 11.634822 -12.002521 41.734129 0.000000 0.000000 0.000000
81 1108 1108 0.272558 0.850000 -7.985276 1.037760 -1.040214 25.186679 -24.509947 56.566878 0.000000 0.000000 0.000000
82 1108 1108 0.272558 0.018054 2.968253 -1.381456 -2.382010 -36.999618 1.398412 81.533456 0.000000 0.000000 0.000000
83 1108 1108 0.272558 0.850000 2.019055 -2.704033 -2.179613 -6.229660 10.021675 43.454749 0.000000 0.000000 0.000000
84 1108 1108 0.272558 0.850000 1.961131 0.980669 2.410921 -10.911748 -0.126142 -38.262858 0.000000 0.000000 0.000000
85 1108 1108 0.272558 0.850000 6.461088 2.237653 -1.487825 -12.906691 -9.857309 39.758965 0.000000 0.000000 0.000000
86 1108 1108 0.272558 0.001561 -0.072153 -2.463759 2.296612 -12.195311 7.368007 -83.805078 0.000000 0.000000 0.000000
87 1108 1108 0.272558 0.850000 7.192887 -0.773018 1.458503 -14.924438 3.393492 -41.039948 0.000000 0.000000 0.000000
88 1108 1108 0.272558 0.850000 -3.766294 4.921714 -0.959397 7.702979 -29.925963 17.142562 0.000000 0.000000 0.000000
89 1108 1108 0.272558 0.850000 -0.942924 0.720486 2.476088 17.933916 30.130910 -45.826122 0.000000 0.000000 0.000000
90 1108 1108 0.272558 0.850000 -3.361340 -0.009141 -2.336560 4.917159 9.267729 55.019410 0.000000 0.000000 0.000000
91 1108 1108 0.272558 0.850000 -5.219664 -1.501198 -1.947758 27.848822 2.850154 73.836177 0.000000 0.000000 0.000000
92 1108 1108 0.272558 0.850000 -2.312773 0.874086 -2.378911 -9.323767 -4.838580 54.592472 0.000000 0.000000 0.000000
93 1108 1108 0.272558 0.850000 7.740134 2.996698 -0.114378 -33.768177 -36.741990 6.155969 0.000000 0.000000 0.000000
94 1108 1108 0.272558 0.850000 0.877025 -3.441890 2.056060 -8.457349 15.265710 -43.562254 0.000000 0.000000 0.000000
95 1108 1108 0.272558 0.850000 4.293090 5.250172 0.066777 -16.988212 -49.198503 -4.859880 0.000000 0.000000 0.000000
96 1108 1108 0.272558 0.850000 -2.152118 3.050638 -2.067958 7.088818 -16.448275 64.769926 0.000000 0.000000 0.000000
97 1108 1108 0.272558 0.012685 1.961120 -5.880692 -0.300782 -6.260835 68.319957 15.983614 0.000000 0.000000 0.000000
98 1108 1108 0.272558 0.002674 5.326861 -0.344864 2.071554 -15.985928 2.348473 -80.161817 0.000000 0.000000 0.000000
99 1108 1108 0.272558 0.850000 0.485092 3.864141 -1.921132 -1.377139 -18.918064 43.569031 0.000000 0.000000 0.000000
100 1108 1108 0.272558 0.850000 2.237533 -2.112713 2.282958 -3.507256 9.692119 -67.293626 0.000000 0.000000 0.000000
101 1108 1108 0.272558 0.041703 8.023605 1.525383 -0.923953 -39.599797 -16.907687 51.191153 0.000000 0.000000 0.000000
102 1108 1108 0.272558 0.850000 -8.539028 -1.783311 0.034276 56.275875 30.020028 -5.681646 0.000000 0.000000 0.000000
103 1108 1108 0.272558 0.850000 0.178457 2.985111 -2.173835 -2.637073 -13.105819 59.776064 0.000000 0.000000 0.000000
104 1108 1108 0.272558 0.850000 4.345620 2.948130 1.835983 -15.043894 -13.028615 -44.581581 0.000000 0.000000 0.000000
105 1108 1108 0.272558 0.850000 -4.780197 -4.258225 1.188940 15.281412 28.782321 -41.591868 0.000000 0.000000 0.000000
106 1108 1108 0.272558 0.850000 0.594525 5.639274 0.885280 -1.927336 -32.911990 -28.650758 0.000000 0.000000 0.000000
107 1108 1108 0.272558 0.850000 -0.431156 -5.594958 0.947301 -9.470061 48.255133 -27.544218 0.000000 0.000000 0.000000
108 1108 1108 0.272558 0.850000 -1.724797 -4.069248 -1.769512 4.518815 8.822928 38.893769 0.000000 0.000000 0.000000
109 1108 1108 0.272558 0.850000 -2.249656 4.805204 1.350591 11.395511 -37.936094 -34.688141 0.000000 0.000000 0.000000
110 1108 1108 0.272558 0.850000 -5.897275 2.898843 -1.477278 9.019720 -20.400124 32.775038 0.000000 0.000000 0.000000
111 1108 1108 0.272558 0.850000 -7.655933 -2.023964 -1.057325 26.057840 43.507174 90.016244 0.000000 0.000000 0.000000
112 1108 1108 0.272558 0.028871 -2.881763 1.143038 -2.334303 7.723652 -1.671928 57.661409 0.000000 0.000000 0.000000
113 1108 1108 0.272558 0.850000 5.626598 -1.615618 -1.857987 -10.301022 6.252788 42.710161 0.000000 0.000000 0.000000
114 1108 1108 0.272558 0.850000 3.551400 -3.464785 -1.776478 -5.785720 13.929545 43.870178 0.000000 0.000000 0.000000
115 1108 1108 0.272558 0.850000 -6.981668 -1.941084 1.331965 13.912190 8.025841 -48.952227 0.000000 0.000000 0.000000
116 1108 1108 0.272558 0.850000 -2.211023 4.259887 1.642192 10.052183 -26.364858 -41.532480 0.000000 0.000000 0.000000
117 1108 1108 0.272558 0.850000 -7.013348 -1.128073 1.532126 5.510167 10.372207 -75.240079 0.000000 0.000000 0.000000
118 1108 1108 0.272558 0.850000 -2.117345 -0.259915 -2.439992 9.035330 17.734791 30.615525 0.000000 0.000000 0.000000
119 1108 1108 0.272558 0.850000 4.271821 -5.298648 0.072957 -14.137953 44.195431 -1.208275 0.000000 0.000000 0.000000
120 1108 1108 0.272558 0.850000 -2.369854 -5.749268 0.160920 3.429111 46.987107 -6.639193 0.000000 0.000000 0.000000
121 1108 1108 0.272558 0.850000 -0.576891 4.748014 1.514903 1.755516 -20.384562 -37.331730 0.000000 0.000000 0.000000
122 1108 1108 0.272558 0.850000 1.860531 1.636793 2.353467 -14.973618 0.194591 -36.356831 0.000000 0.000000 0.000000
123 1108 1108 0.272558 0.850000 -1.914235 -4.840604 -1.415566 4.492827 32.419094 53.229139 0.000000 0.000000 0.000000
124 1108 1108 0.272558 0.053095 8.445742 1.695234 -0.574315 -38.306242 -17.259903 28.377969 0.000000 0.000000 0.000000
125 1108 1108 0.272558 0.850000 -5.257854 -3.954901 1.208919 18.629913 21.817494 -41.505112 0.000000 0.000000 0.000000
126 1108 1108 0.272558 0.001808 1.162121 2.843857 -2.206240 0.711244 -13.576951 81.525295 0.000000 0.000000 0.000000
127 1108 1108 0.272558 0.001391 -3.952508 2.633871 -2.007991 13.452548 -17.190356 79.069077 0.000000 0.000000 0.000000
128 1108 1108 0.272558 0.850000 3.960432 -2.089337 -2.066016 -8.554415 7.990568 43.558785 0.000000 0.000000 0.000000
129 1108 1108 0.272558 0.850000 -4.855277 -1.105470 2.064655 11.044025 5.633940 -69.976696 0.000000 0.000000 0.000000
130 1108 1108 0.272558 0.850000 -0.365619 4.401801 1.716644 -5.150601 -14.228728 -37.939681 0.000000 0.000000 0.000000
131 1108 1108 0.272558 0.006150 4.117443 -0.119084 2.250890 -8.342795 -0.026757 -64.090377 0.000000 0.000000 0.000000
132 1108 1108 0.272558 0.850000 -7.243085 1.996714 1.250490 18.785477 -18.656634 -71.471445 0.000000 0.000000 0.000000
133 1108 1108 0.272558 0.021684 -8.486942 1.723563 -0.437929 39.019534 -19.810017 25.613638 0.000000 0.000000 0.000000
134 1108 1108 0.272558 0.850000 -4.600034 -2.854377 1.815151 11.528792 12.683921 -40.670720 0.000000 0.000000 0.000000
135 1108 1108 0.272558 0.850000 0.638862 -4.897013 -1.490635 0.289796 42.657032 73.795683 0.000000 0.000000 0.000000
136 1108 1108 0.272558 0.850000 1.473657 -0.249941 -2.469787 4.890488 -9.210910 31.868986 0.000000 0.000000 0.000000
137 1108 1108 0.272558 0.850000 3.895344 -2.915512 1.900218 -6.291914 11.595828 -42.379461 0.000000 0.000000 0.000000
138 1108 1108 0.272558 0.850000 6.067213 -0.986614 1.797698 -5.562606 -0.864339 -51.921681 0.000000 0.000000 0.000000
139 1108 1108 0.272558 0.850000 -8.157128 -0.104232 -1.113153 40.115155 -10.008992 79.457113 0.000000 0.000000 0.000000
140 1108 1108 0.272558 0.850000 2.245371 -3.179787 -2.049808 -4.386529 10.826824 41.513731 0.000000 0.000000 0.000000
141 1108 1108 0.272558 0.850000 -4.330040 4.538069 -1.083292 -11.219710 -35.167543 54.962876 0.000000 0.000000 0.000000
142 1108 1108 0.272558 0.000642 1.738146 -3.325168 2.023330 -1.826850 11.269625 -40.430966 0.000000 0.000000 0.000000
143 1108 1108 0.272558 0.012401 2.509622 5.645666 0.499155 -10.606377 -59.253459 -28.344062 0.000000 0.000000 0.000000
144 1108 1108 0.272558 0.850000 -5.521063 -4.658002 -0.263986 24.886641 38.914191 13.681580 0.000000 0.000000 0.000000
145 1108 1108 0.272558 0.850000 -2.617883 4.538384 1.455998 15.604997 -30.685091 -38.455164 0.000000 0.000000 0.000000
146 1108 1108 0.272558 0.850000 -2.660628 5.190317 1.036459 19.663007 -39.846797 -38.070798 0.000000 0.000000 0.000000
147 1108 1108 0.272558 0.850000 -0.722229 3.124848 2.138986 -6.840567 -35.117054 -65.318127 0.000000 0.000000 0.000000
148 1108 1108 0.272558 0.850000 -0.178186 1.108605 2.458009 -2.561223 7.026882 -55.804461 0.000000 0.000000 0.000000
149 1108 1108 0.272558 0.850000 4.591932 -1.404374 2.092964 -13.181597 6.400643 -64.938909 0.000000 0.000000 0.000000
150 1108 1108 0.272558 0.850000 4.895486 1.045961 -2.043266 -14.556561 2.823234 41.504499 0.000000 0.000000 0.000000
151 1108 1108 0.272558 0.212788 0.084866 -5.982976 0.326203 3.867297 119.866945 -45.879997 0.000000 0.000000 0.000000
152 1108 1108 0.272558 0.003814 -0.849562 5.407553 -1.080333 29.162506 -60.423470 84.930562 0.000000 0.000000 0.000000
153 1108 1108 0.272558 0.850000 7.760502 -2.959011 0.411322 -54.476977 49.132460 -31.228041 0.000000 0.000000 0.000000
154 1108 1108 0.272558 0.850000 3.235429 1.648510 2.240797 -0.192369 9.963899 -77.356010 0.000000 0.000000 0.000000
155 1108 1108 0.272558 0.850000 3.557554 -4.796382 1.155584 -6.371837 27.831513 -35.671220 0.000000 0.000000 0.000000
156 1108 1108 0.272558 0.041252 -0.441995 -0.133325 2.489458 1.218709 -1.812639 -43.661950 0.000000 0.000000 0.000000
157 1108 1108 0.272558 0.175948 -0.810105 -1.245214 2.460130 5.549132 -11.122184 -60.592499 0.000000 0.000000 0.000000
158 1108 1108 0.272558 0.033666 2.169756 -0.536088 -2.410006 -2.331032 -0.604424 43.136171 0.000000 0.000000 0.000000
159 1108 1108 0.272558 0.850000 -5.000229 -0.222928 -2.075052 1.221596 14.745003 36.064297 0.000000 0.000000 0.000000
160 1108 1108 0.272558 0.850000 5.155792 0.507079 -2.047513 -3.454432 -3.767048 56.233178 0.000000 0.000000 0.000000
161 1108 1108 0.272558 0.135230 -2.985851 -2.004233 -2.208456 -12.762756 12.627057 75.388005 0.000000 0.000000 0.000000
162 1108 1108 0.272558 0.850000 5.570025 -0.548799 -1.951393 -4.712190 -6.377406 33.378658 0.000000 0.000000 0.000000
163 1108 1108 0.272558 0.850000 5.028923 3.170544 1.597737 -10.239665 -11.660379 -38.975963 0.000000 0.000000 0.000000
164 1108 1108 0.272558 0.850000 -6.663222 3.019211 -1.144341 15.775890 -18.454783 36.244211 0.000000 0.000000 0.000000
165 1108 1108 0.272558 0.850000 -0.856425 1.060794 -2.455315 1.089707 0.412737 45.715655 0.000000 0.000000 0.000000
166 1108 1108 0.272558 0.850000 4.975620 -3.714813 1.417852 -20.380690 60.194556 -84.216593 0.000000 0.000000 0.000000
167 1108 1108 0.272558 0.850000 -0.338922 3.525720 -2.032666 -2.653261 -24.577810 66.938437 0.000000 0.000000 0.000000
168 1108 1108 0.272558 0.004735 -1.877142 3.321680 -2.041492 2.611763 -12.992900 42.999116 0.000000 0.000000 0.000000
169 1108 1108 0.272558 0.015491 2.932672 5.482036 -0.675970 -15.030745 -55.316930 39.088920 0.000000 0.000000 0.000000
170 1108 1108 0.272558 0.009380 -3.361121 -0.082662 2.454734 21.153095 28.598361 -8.186370 0.000000 0.000000 0.000000
171 1108 1108 0.272558 0.002101 -2.816524 -0.101668 2.402742 -1.305791 -0.796975 -37.961450 0.000000 0.000000 0.000000
172 1108 1108 0.272558 0.850000 6.221198 3.959426 -0.705497 -22.653282 -27.813523 30.525752 0.000000 0.000000 0.000000
173 1108 1108 0.272558 0.850000 -2.587721 -4.828417 -1.331078 4.742681 36.801862 57.829127 0.000000 0.000000 0.000000
174 1108 1108 0.272558 0.850000 -6.243087 -0.456015 1.816711 17.917532 3.716049 -62.668125 0.000000 0.000000 0.000000
175 1108 1108 0.272558 0.038947 -2.556304 -2.856816 -2.089967 1.849664 3.869775 35.751227 0.000000 0.000000 0.000000
176 1108 1108 0.272558 0.850000 -1.577410 5.590883 -0.839194 15.063547 -36.691064 40.701475 0.000000 0.000000 0.000000
177 1108 1108 0.272558 0.850000 4.019168 0.855783 2.203831 4.575297 2.748630 -37.147132 0.000000 0.000000 0.000000
178 1108 1108 0.272558 0.010029 -8.690396 1.591814 -0.117829 49.142503 -22.788602 4.852500 0.000000 0.000000 0.000000
179 1108 1108 0.272558 0.850000 -6.877345 3.827359 -0.340684 54.070331 -27.994476 23.267500 0.000000 0.000000 0.000000
180 1108 1108 0.272558 0.850000 -2.666771 -1.137671 2.350059 -8.218688 17.564362 -51.935310 0.000000 0.000000 0.000000
181 1108 1108 0.272558 0.850000 -5.554583 2.461810 1.673322 12.065033 -10.167962 -42.374454 0.000000 0.000000 0.000000
182 1108 1108 0.272558 0.850000 5.623854 3.891891 -1.072036 -16.819418 -23.019275 38.239883 0.000000 0.000000 0.000000
183 1108 1108 0.272558 0.850000 4.105000 4.920334 0.896270 -13.758193 -48.118053 -47.899046 0.000000 0.000000 0.000000
184 1108 1108 0.272558 0.850000 7.507218 -2.684225 -0.888610 -46.954000 49.819509 66.674486 0.000000 0.000000 0.000000
185 1108 1108 0.272558 0.850000 -6.717323 3.672795 0.658103 69.502458 -31.078562 -60.988192 0.000000 0.000000 0.000000
186 1108 1108 0.272558 0.850000 -1.081080 3.050258 2.173301 -4.234683 -17.934392 -89.639541 0.000000 0.000000 0.000000
187 1108 1108 0.272558 0.850000 0.158184 0.197067 2.509285 1.832758 -1.324014 -43.504371 0.000000 0.000000 0.000000
188 1108 1108 0.272558 0.005678 0.747110 -2.799348 -2.287755 -13.414936 6.583346 53.438110 0.000000 0.000000 0.000000
189 1108 1108 0.272558 0.850000 6.391714 1.251308 1.704286 -17.163263 -3.365502 -42.848098 0.000000 0.000000 0.000000
190 1108 1108 0.272558 0.850000 -8.182695 -2.144088 0.460039 41.936510 35.398131 -33.198161 0.000000 0.000000 0.000000
191 1108 1108 0.272558 0.850000 -2.284630 -5.802444 -0.247098 2.941652 45.314084 11.899308 0.000000 0.000000 0.000000
192 1108 1108 0.272558 0.137167 0.947321 3.759235 2.059835 -3.523913 -14.996724 -77.011898 0.000000 0.000000 0.000000
193 1108 1108 0.272558 0.850000 6.099498 3.659059 1.018251 -26.997807 -31.140774 -54.876200 0.000000 0.000000 0.000000
194 1108 1108 0.272558 0.850000 -4.711740 1.712663 -1.997821 8.661425 -6.086344 42.971630 0.000000 0.000000 0.000000
195 1108 1108 0.272558 0.850000 -2.473839 -2.862773 2.083114 13.021620 17.376628 -67.317349 0.000000 0.000000 0.000000
196 1108 1108 0.272558 0.850000 -7.962893 1.184063 1.096097 38.001090 -1.573062 -77.365929 0.000000 0.000000 0.000000
197 1108 1108 0.272558 0.850000 -2.709216 4.863082 1.258924 18.041676 -33.632297 -35.036405 0.000000 0.000000 0.000000
198 1108 1108 0.272558 0.095989 -8.300915 -0.636722 -0.971924 76.240847 10.564001 107.830080 0.000000 0.000000 0.000000
199 1108 1108 0.272558 0.850000 -2.962849 -1.218699 -2.314002 -18.814470 -3.104950 53.538134 0.000000 0.000000 0.000000
200 1108 1108 0.272558 0.850000 1.156330 -4.808437 1.454666 -1.143581 22.097127 -37.551958 0.000000 0.000000 0.000000
201 1108 1108 0.272558 0.001187 7.681771 -2.758473 -0.595404 -46.709191 41.699797 42.510412 0.000000 0.000000 0.000000
202 1108 1108 0.272558 0.850000 5.587555 -2.686418 1.627599 -17.191225 2.146665 -55.829634 0.000000 0.000000 0.000000
203 1108 1108 0.272558 0.850000 7.826444 1.986097 0.945376 -34.144038 -23.002423 -56.478277 0.000000 0.000000 0.000000
204 1108 1108 0.272558 0.850000 3.991821 -4.818240 -1.034498 -12.783538 42.486205 50.367005 0.000000 0.000000 0.000000
205 1108 1108 0.272558 0.136578 8.148145 -2.190882 0.549077 -72.277869 37.345367 -57.646882 0.000000 0.000000 0.000000
206 1108 1108 0.272558 0.850000 -2.707807 4.628885 -1.403217 5.886011 -22.431370 37.942420 0.000000 0.000000 0.000000
207 1108 1108 0.272558 0.850000 -2.110064 -4.543775 1.524316 5.889249 29.605552 -56.429335 0.000000 0.000000 0.000000
208 1108 1108 0.272558 0.850000 5.856623 0.032309 1.901188 -20.211908 -1.134953 -70.496515 0.000000 0.000000 0.000000
209 1108 1108 0.272558 0.850000 -6.730783 -3.900005 -0.464233 46.461270 71.146194 35.473175 0.000000 0.000000 0.000000
210 1108 1108 0.272558 0.040536 -8.432918 1.472699 0.642694 66.708048 -13.745190 -56.388306 0.000000 0.000000 0.000000
211 1108 1108 0.272558 0.850000 -1.769227 0.185729 2.444435 3.785097 -1.713335 -45.384077 0.000000 0.000000 0.000000
212 1108 1108 0.272558 0.850000 -1.046024 5.805289 0.503317 5.865726 -46.494804 -28.275495 0.000000 0.000000 0.000000
213 1108 1108 0.272558 0.850000 -6.363575 -2.713092 -1.339571 6.333643 16.047465 45.477192 0.000000 0.000000 0.000000
214 1108 1108 0.272558 0.850000 6.611466 1.510339 -1.558141 17.988562 -12.203218 71.776079 0.000000 0.000000 0.000000
215 1108 1108 0.272558 0.850000 2.336410 4.317696 -1.622421 -2.955176 -12.999104 38.948536 0.000000 0.000000 0.000000
216 1108 1108 0.272558 0.850000 -0.365768 -5.470361 -1.029998 9.651239 50.600575 77.013005 0.000000 0.000000 0.000000
217 1108 1108 0.272558 0.850000 -3.272844 5.574791 -0.098299 20.988258 -62.166307 3.822156 0.000000 0.000000 0.000000
218 1108 1108 0.272558 0.850000 -1.054132 0.350092 2.490585 -0.769308 -9.969571 -51.399255 0.000000 0.000000 0.000000
219 1108 1108 0.272558 0.850000 6.272356 4.252845 -0.242621 -44.290070 -55.284816 16.453195 0.000000 0.000000 0.000000
220 1108 1108 0.272558 0.850000 -1.981262 1.714867 -2.330873 13.888070 -0.405716 64.090341 0.000000 0.000000 0.000000
221 1108 1108 0.272558 0.850000 6.750518 -3.867382 -0.287121 -26.406104 33.371378 14.212993 0.000000 0.000000 0.000000
222 1108 1108 0.272558 0.850000 -0.121449 -0.660346 2.482279 3.358077 2.407347 -61.460930 0.000000 0.000000 0.000000
223 1108 1108 0.272558 0.850000 -3.616239 3.079404 -1.926927 7.151296 -16.038967 51.072518 0.000000 0.000000 0.000000
224 1108 1108 0.272558 0.850000 -6.239384 0.719728 1.778715 18.480713 -4.995649 -61.596122 0.000000 0.000000 0.000000
225 1108 1108 0.272558 0.850000 2.403153 -4.289219 1.606784 -4.447443 18.365812 -40.062877 0.000000 0.000000 0.000000
226 1108 1108 0.272558 0.850000 1.061231 -0.141489 -2.511342 -18.604447 11.351746 76.944321 0.000000 0.000000 0.000000
227 1108 1108 0.272558 0.850000 -1.715995 0.904701 -2.419304 9.489323 0.174824 35.974274 0.000000 0.000000 0.000000
228 1108 1108 0.272558 0.850000 -2.682601 1.565910 -2.288321 6.521999 -0.213538 40.153921 0.000000 0.000000 0.000000
229 1108 1108 0.272558 0.850000 5.910539 2.893712 -1.443177 -13.358196 -13.267399 38.440652 0.000000 0.000000 0.000000
230 1108 1108 0.272558 0.073179 5.051387 -4.345881 -1.077833 -27.744394 46.135731 74.494679 0.000000 0.000000 0.000000
231 1108 1108 0.272558 0.850000 -4.472705 4.703097 0.945340 -23.101400 -48.318030 -47.007601 0.000000 0.000000 0.000000
232 1108 1108 0.272558 0.850000 1.075243 -4.557501 -1.630980 -3.582841 19.612535 43.763301 0.000000 0.000000 0.000000
233 1108 1108 0.272558 0.850000 -6.424043 -3.174604 1.149094 16.884131 33.263767 -65.054676 0.000000 0.000000 0.000000
234 1108 1108 0.272558 0.850000 5.045959 -3.089522 -1.645802 -9.231757 10.813428 44.776230 0.000000 0.000000 0.000000
235 1108 1108 0.272558 0.850000 5.365628 1.324404 -1.934921 -13.931063 -1.865730 63.687166 0.000000 0.000000 0.000000
236 1108 1108 0.272558 0.014136 5.698119 1.037647 -1.963370 -18.981945 -41.554104 92.763422 0.000000 0.000000 0.000000
237 1108 1108 0.272558 0.850000 2.317156 2.498216 2.205455 2.133208 -8.497637 -64.901188 0.000000 0.000000 0.000000
238 1108 1108 0.272558 0.011069 -7.974649 -1.249142 -1.070498 42.702361 -0.642360 72.857040 0.000000 0.000000 0.000000
239 1108 1108 0.272558 0.850000 6.351308 -3.113409 -1.189895 -19.423334 15.783884 39.861215 0.000000 0.000000 0.000000
240 1108 1108 0.272558 0.850000 -3.950887 -1.002142 -2.229925 4.739939 -3.232132 70.868069 0.000000 0.000000 0.000000
241 1108 1108 0.272558 0.850000 1.350265 1.921945 2.358239 -1.275096 -5.479499 -41.360918 0.000000 0.000000 0.000000
242 1108 1108 0.272558 0.850000 -8.093591 -2.088091 -0.728153 83.147055 60.040049 80.144385 0.000000 0.000000 0.000000
243 1108 1108 0.272558 0.850000 -1.107232 4.635166 1.587507 -7.022582 -37.015378 -43.219335 0.000000 0.000000 0.000000
244 1108 1108 0.272558 0.850000 7.202490 1.803103 -1.337515 -30.575467 -21.945401 84.102274 0.000000 0.000000 0.000000
245 1108 1108 0.272558 0.023728 -4.076579 -5.043552 0.746414 15.091269 33.198734 -24.541456 0.000000 0.000000 0.000000
246 1108 1108 0.272558 0.850000 7.486274 2.061658 1.085332 -22.012160 -21.918715 -51.382525 0.000000 0.000000 0.000000
247 1108 1108 0.272558 0.850000 -7.050006 1.260697 1.467380 10.190701 -5.669175 -49.457518 0.000000 0.000000 0.000000
248 1108 1108 0.272558 0.850000 4.325936 -3.482085 -1.640151 -10.430503 21.417766 64.910736 0.000000 0.000000 0.000000
249 1108 1108 0.272558 0.850000 3.089201 -5.526193 0.483141 -10.208204 38.892760 -17.658506 0.000000 0.000000 0.000000
250 1108 1108 0.272558 0.018312 -3.827381 2.327059 2.114813 3.465136 -15.701994 -87.623235 0.000000 0.000000 0.000000
251 1108 1108 0.272558 0.850000 -0.193477 4.977899 -1.392796 -10.113179 -16.717585 62.474032 0.000000 0.000000 0.000000