ITEM: TIMESTEP
300
ITEM: NUMBER OF ATOMS
2162
ITEM: BOX BOUNDS pp pp pp
-36.000000 36.000000
-36.000000 36.000000
-36.000000 36.000000
ITEM: ATOMS id type radius Transparency xu yu zu vx vy vz ox oy oz
1 1 0.276782 0.100000 -1.678951 2.749503 -1.696695 0.000000 0.000000 0.000000 0.000000 0.000000 0.000000
1 1 0.553563 0.100000 -1.055715 2.892805 -1.419817 -0.093879 -0.106654 0.111220 -7.932861 -6.670605 29.598273
1 2 0.276782 0.100000 -1.668648 3.121341 -0.629875 0.000000 0.000000 0.000000 0.000000 0.000000 0.000000
1 2 0.553563 0.100000 -1.541643 3.430146 -0.378067 0.227775 0.045278 -0.363694 17.416230 7.841772 -35.782664
1 3 0.276782 0.100000 0.078417 2.241663 -0.691192 0.000000 0.000000 0.000000 0.000000 0.000000 0.000000
1 3 0.553563 0.100000 0.377821 2.623197 -1.420490 -0.184221 0.087132 0.164085 -15.523334 8.960504 15.404433
1 4 0.276782 0.100000 -2.015416 1.077152 -0.655007 0.000000 0.000000 0.000000 0.000000 0.000000 0.000000
1 4 0.553563 0.100000 -1.577948 0.725815 -1.600265 -0.039998 0.089640 -0.211038 -3.923810 10.625572 -15.157669
1 5 0.276782 0.100000 -1.841406 2.934811 -0.363788 0.000000 0.000000 0.000000 0.000000 0.000000 0.000000
1 5 0.553563 0.100000 -1.883494 2.682949 -0.849442 0.063999 -0.135512 -0.215860 9.728771 -4.266934 -32.010339
1 6 0.276782 0.100000 -0.240489 2.768010 -0.440932 0.000000 0.000000 0.000000 0.000000 0.000000 0.000000
1 6 0.553563 0.100000 -0.344890 2.388252 -0.830646 -0.024086 0.100774 -0.030008 -3.195769 15.537403 -7.477115
1 7 0.276782 0.100000 -0.824576 3.089456 -0.313737 0.000000 0.000000 0.000000 0.000000 0.000000 0.000000
1 7 0.553563 0.100000 -1.086424 2.529588 -0.925173 -0.045826 -0.018664 -0.318051 -8.178519 6.424410 -21.605988
1 8 0.276782 0.100000 -2.181751 1.294582 -1.093053 0.000000 0.000000 0.000000 0.000000 0.000000 0.000000
1 8 0.553563 0.100000 -2.676465 1.013741 -1.413451 0.165181 0.149030 -0.464364 23.501391 15.256237 -44.681416
1 9 0.276782 0.100000 -0.980135 2.139858 -2.081117 0.000000 0.000000 0.000000 0.000000 0.000000 0.000000
1 9 0.553563 0.100000 -1.002210 2.642736 -1.451138 -0.255468 0.004868 0.438994 -15.198914 4.332025 35.835422
1 10 0.276782 0.100000 -0.167040 2.636575 -0.382894 0.000000 0.000000 0.000000 0.000000 0.000000 0.000000
1 10 0.553563 0.100000 -0.726757 2.196246 -0.565322 -0.064159 0.066204 -0.070240 -4.258395 2.558759 -4.201418
1 11 0.276782 0.100000 -0.754201 0.787725 -0.940712 0.000000 0.000000 0.000000 0.000000 0.000000 0.000000
1 11 0.553563 0.100000 -1.076415 0.819568 -1.100990 -0.310844 0.125250 -0.214774 -36.988287 15.928697 -20.834380
1 1106 0.276782 0.100000 -2.310823 1.962492 -0.328168 0.000000 0.000000 0.000000 0.000000 0.000000 0.000000
1 1106 0.553563 0.100000 -2.086207 1.453032 -0.249455 0.201904 0.059959 -0.290077 24.368908 3.918835 -28.203734
1 13 0.276782 0.100000 -0.115515 1.313200 -0.560858 0.000000 0.000000 0.000000 0.000000 0.000000 0.000000
1 13 0.553563 0.100000 -0.349770 1.546301 -1.260053 -0.324288 0.361053 -0.094153 -33.219554 26.242016 -30.621035
1 14 0.276782 0.100000 -1.291843 2.501157 0.309994 0.000000 0.000000 0.000000 0.000000 0.000000 0.000000
1 14 0.553563 0.100000 -0.787849 2.116880 -0.315353 -0.005172 -0.041475 -0.011632 -2.991130 -1.577593 -7.991965
1 15 0.276782 0.100000 -0.407637 2.456753 0.071066 0.000000 0.000000 0.000000 0.000000 0.000000 0.000000
1 15 0.553563 0.100000 -0.853876 2.019039 0.333198 -0.023660 -0.119157 -0.373726 2.968434 -5.534694 -37.171714
1 16 0.276782 0.100000 -1.939515 1.208778 -0.220532 0.000000 0.000000 0.000000 0.000000 0.000000 0.000000
1 16 0.553563 0.100000 -1.654371 1.596648 -0.344540 0.054225 -0.091857 -0.159785 5.073308 -6.748777 -21.754338
1 1106 0.276782 0.100000 -0.273808 1.147093 -1.195682 0.000000 0.000000 0.000000 0.000000 0.000000 0.000000
1 1106 0.553563 0.100000 -0.600865 1.536579 -1.053991 -0.301466 0.145735 -0.283307 -35.091903 14.687453 -16.517314
1 18 0.276782 0.100000 -0.742034 2.910950 -1.595473 0.000000 0.000000 0.000000 0.000000 0.000000 0.000000
1 18 0.553563 0.100000 -0.597264 3.025290 -1.346905 -0.115692 -0.027786 0.287599 -10.375487 9.193419 28.346792
1 19 0.276782 0.100000 -0.936781 0.757965 -0.611873 0.000000 0.000000 0.000000 0.000000 0.000000 0.000000
1 19 0.553563 0.100000 -0.905323 0.735289 -0.389937 -0.272812 -0.044194 0.153632 -29.921405 15.008868 6.310543
1 20 0.276782 0.100000 -0.217460 1.338224 -0.279997 0.000000 0.000000 0.000000 0.000000 0.000000 0.000000
1 20 0.553563 0.100000 0.003275 1.211478 -1.146325 -0.332354 0.356013 -0.146941 -35.305619 33.880077 -18.301697
1 21 0.276782 0.100000 -0.264492 1.797228 -1.719299 0.000000 0.000000 0.000000 0.000000 0.000000 0.000000
1 21 0.553563 0.100000 -0.203943 1.855064 -1.560059 -0.156809 0.092954 0.183631 -20.270448 12.770272 22.647393
1 1106 0.276782 0.100000 -2.182414 2.009326 -0.102226 0.000000 0.000000 0.000000 0.000000 0.000000 0.000000
1 1106 0.553563 0.100000 -2.491061 1.756002 -0.485681 0.254418 0.047065 -0.304217 21.727435 -1.173075 -25.642389
1 1107 0.382524 0.100000 -1.092211 2.543856 -1.970668 0.000000 0.000000 0.000000 0.000000 0.000000 0.000000
1 1107 0.765048 0.100000 -1.199104 2.784030 -1.384625 -0.996468 0.085756 0.312249 -135.884035 2.437481 32.603632
1 0 1.265594 0.200000 -1.152200 1.984618 -0.836922 -0.073774 0.024983 0.394464 0.788424 -0.567349 -0.237703
25 0 0.261594 0.100000 -2.933584 -3.805769 1.293356 0.000000 0.000000 0.000000 0.000000 0.000000 0.000000
25 0 0.523188 0.100000 -2.824954 -3.855413 0.912104 -0.037923 0.119386 -0.236718 -6.991659 -3.090364 -24.165262
25 2 0.261594 0.100000 -2.654894 -2.823687 -0.718626 0.000000 0.000000 0.000000 0.000000 0.000000 0.000000
25 2 0.523188 0.100000 -3.107251 -3.326827 -1.072833 0.133461 0.087824 0.178834 8.135678 7.493883 15.381535
25 3 0.261594 0.100000 -2.084910 -3.077213 0.506464 0.000000 0.000000 0.000000 0.000000 0.000000 0.000000
25 3 0.523188 0.100000 -2.839133 -2.920577 1.207033 -0.023752 -0.078050 0.012546 0.090656 -16.344070 -5.167289
25 4 0.261594 0.100000 -2.560938 -2.761333 -0.556369 0.000000 0.000000 0.000000 0.000000 0.000000 0.000000
25 4 0.523188 0.100000 -3.078408 -3.024217 -0.026927 -0.069627 -0.110223 -0.212375 -8.518109 -5.644309 -9.434568
25 5 0.261594 0.100000 -1.710836 -4.100304 0.036917 0.000000 0.000000 0.000000 0.000000 0.000000 0.000000
25 5 0.523188 0.100000 -1.780096 -4.468489 -0.101409 -0.143865 -0.115448 -0.244069 -13.121197 -22.209677 -20.975285
25 6 0.261594 0.100000 -2.093846 -3.819728 -0.949787 0.000000 0.000000 0.000000 0.000000 0.000000 0.000000
25 6 0.523188 0.100000 -2.192060 -4.186117 -0.811315 0.081722 0.233391 0.193957 9.718056 13.131900 13.852279
25 7 0.261594 0.100000 -3.376082 -2.617941 -0.044254 0.000000 0.000000 0.000000 0.000000 0.000000 0.000000
25 7 0.523188 0.100000 -3.889550 -3.637537 -0.493993 -0.083920 -0.204124 -0.332058 -15.391620 -21.426661 -26.356414
25 8 0.261594 0.100000 -3.067632 -2.612699 -0.368943 0.000000 0.000000 0.000000 0.000000 0.000000 0.000000
25 8 0.523188 0.100000 -3.079525 -2.512976 -0.516986 0.021179 -0.130972 -0.126436 -2.500964 -19.076273 -12.520695
25 9 0.261594 0.100000 -2.906215 -4.502821 1.123110 0.000000 0.000000 0.000000 0.000000 0.000000 0.000000
25 9 0.523188 0.100000 -2.741913 -4.535072 0.523404 -0.036334 0.087023 -0.259881 -9.588116 8.066240 -25.184038
25 10 0.261594 0.100000 -4.080350 -4.426899 -0.435131 0.000000 0.000000 0.000000 0.000000 0.000000 0.000000
25 10 0.523188 0.100000 -3.921119 -4.538232 -0.165795 0.017744 0.283163 0.108014 -4.130660 17.406005 23.940813
25 11 0.261594 0.100000 -1.859216 -3.294496 -0.316792 0.000000 0.000000 0.000000 0.000000 0.000000 0.000000
25 11 0.523188 0.100000 -2.520320 -3.802886 0.256532 0.030303 -0.152763 0.138040 -6.819088 -19.504049 9.827563
25 1106 0.261594 0.100000 -3.212862 -2.679209 0.493398 0.000000 0.000000 0.000000 0.000000 0.000000 0.000000
25 1106 0.523188 0.100000 -2.797728 -2.975484 1.057472 -0.033663 -0.226826 0.280744 -9.300506 -23.245919 33.314044
25 1106 0.261594 0.100000 -3.575762 -2.791571 -0.462775 0.000000 0.000000 0.000000 0.000000 0.000000 0.000000
25 1106 0.523188 0.100000 -4.288835 -2.988316 -0.086634 -0.036892 -0.212813 -0.093080 2.607884 -18.915323 -22.000733
25 14 0.261594 0.100000 -2.493300 -2.732379 0.413176 0.000000 0.000000 0.000000 0.000000 0.000000 0.000000
25 14 0.523188 0.100000 -3.108629 -3.733885 -0.271160 0.015886 -0.274236 -0.100445 -9.438962 -17.709972 -16.767617
25 15 0.261594 0.100000 -3.994778 -3.577682 -0.783468 0.000000 0.000000 0.000000 0.000000 0.000000 0.000000
25 15 0.523188 0.100000 -4.165343 -3.303976 -0.921295 0.009893 0.059895 0.135884 -6.168732 -0.429126 22.786119
25 16 0.261594 0.100000 -2.956008 -5.113748 0.344319 0.000000 0.000000 0.000000 0.000000 0.000000 0.000000
25 16 0.523188 0.100000 -2.484104 -4.788390 0.322724 -0.046563 0.021626 -0.233391 -3.681417 4.637592 -31.575335
25 1106 0.261594 0.100000 -2.079303 -3.037606 0.428559 0.000000 0.000000 0.000000 0.000000 0.000000 0.000000
25 1106 0.523188 0.100000 -1.986646 -3.984886 -0.180064 -0.009661 -0.154540 -0.330313 0.203049 -8.979252 -27.057118
25 1106 0.261594 0.100000 -3.991147 -3.377242 0.670749 0.000000 0.000000 0.000000 0.000000 0.000000 0.000000
25 1106 0.523188 0.100000 -4.611563 -3.614551 0.652288 0.154855 -0.204388 -0.363613 16.218802 -17.779846 -29.581019
25 1106 0.261594 0.100000 -2.310769 -2.754889 -0.113534 0.000000 0.000000 0.000000 0.000000 0.000000 0.000000
25 1106 0.523188 0.100000 -2.187314 -3.094314 0.266725 -0.019461 -0.158892 -0.019126 7.484195 -7.730340 -1.316994
25 1106 0.261594 0.100000 -2.737373 -2.621024 0.301887 0.000000 0.000000 0.000000 0.000000 0.000000 0.000000
25 1106 0.523188 0.100000 -2.549371 -3.348776 -0.068682 -0.151254 -0.057682 -0.218663 -0.280722 -8.327350 -15.400987
25 1106 0.261594 0.100000 -3.021297 -4.243745 -1.249753 0.000000 0.000000 0.000000 0.000000 0.000000 0.000000
25 1106 0.523188 0.100000 -3.344042 -4.207185 -0.651066 0.271368 0.163117 0.220477 13.287122 6.418258 21.660590
25 1106 0.261594 0.100000 -4.054862 -3.113730 -0.054084 0.000000 0.000000 0.000000 0.000000 0.000000 0.000000
25 1106 0.523188 0.100000 -4.693904 -3.635124 0.421379 -0.131005 -0.510609 0.075256 -9.225264 -49.027608 8.321990
25 1107 0.449181 0.100000 -3.247082 -4.629493 -1.024378 0.000000 0.000000 0.000000 0.000000 0.000000 0.000000
25 1107 0.898362 0.100000 -3.953747 -4.283219 0.000781 -1.040519 0.563928 0.242211 -160.025471 121.830912 86.427317
25 1 1.301788 0.200000 -2.989614 -3.860454 -0.006075 0.164351 0.560393 -0.010763 -0.494557 -0.622414 0.606642
49 0 0.260203 0.100000 5.782145 -1.265465 0.378322 0.000000 0.000000 0.000000 0.000000 0.000000 0.000000
49 0 0.520405 0.100000 5.524541 -0.994250 -0.061493 -0.016333 -0.116712 0.168186 -6.190812 -12.059520 9.227955
49 1 0.260203 0.100000 5.874225 -2.411834 0.024841 0.000000 0.000000 0.000000 0.000000 0.000000 0.000000
49 1 0.520405 0.100000 5.704012 -2.994213 -0.233658 0.242156 -0.290686 -0.141270 16.626366 -21.257260 -14.833926
49 1106 0.260203 0.100000 6.276047 -1.176526 -0.900194 0.000000 0.000000 0.000000 0.000000 0.000000 0.000000
49 1106 0.520405 0.100000 6.344313 -1.108893 -0.916359 -0.224728 -0.093148 0.103680 -20.049307 -6.151349 13.167267
49 1106 0.260203 0.100000 6.939456 -0.572174 -0.027982 0.000000 0.000000 0.000000 0.000000 0.000000 0.000000
49 1106 0.520405 0.100000 7.293125 -0.598697 0.075612 0.071725 -0.141908 0.041030 18.325812 -10.192199 13.916812
49 5 0.260203 0.100000 7.060282 -2.777094 -0.226273 0.000000 0.000000 0.000000 0.000000 0.000000 0.000000
49 5 0.520405 0.100000 6.860379 -2.748634 0.028635 -0.262716 0.003240 0.027314 -26.203668 2.327705 -4.078848
49 1106 0.260203 0.100000 6.904449 -2.312283 0.938849 0.000000 0.000000 0.000000 0.000000 0.000000 0.000000
49 1106 0.520405 0.100000 7.115844 -2.435776 0.170081 -0.201989 0.026528 -0.181497 -17.938245 2.329027 -20.472032
49 7 0.260203 0.100000 6.034963 -1.422495 0.822422 0.000000 0.000000 0.000000 0.000000 0.000000 0.000000
49 7 0.520405 0.100000 6.828094 -1.320415 0.680409 -0.022977 0.108035 0.162366 -7.009506 6.404970 16.879089
49 8 0.260203 0.100000 7.305255 -2.275009 -0.830508 0.000000 0.000000 0.000000 0.000000 0.000000 0.000000
49 8 0.520405 0.100000 7.085932 -2.196751 -0.367379 -0.234532 -0.021288 0.261800 -13.760908 -2.953261 27.145702
49 9 0.260203 0.100000 5.657272 -1.603291 -0.274077 0.000000 0.000000 0.000000 0.000000 0.000000 0.000000
49 9 0.520405 0.100000 6.271461 -2.283821 -0.669598 -0.197874 0.007699 0.189819 -21.524082 -2.765630 8.611113
49 10 0.260203 0.100000 5.809883 -2.323508 0.022767 0.000000 0.000000 0.000000 0.000000 0.000000 0.000000
49 10 0.520405 0.100000 6.043123 -2.584108 0.100472 0.112962 -0.238325 0.160454 4.842857 -22.549614 17.770334
49 11 0.260203 0.100000 7.864026 -1.406086 0.008015 0.000000 0.000000 0.000000 0.000000 0.000000 0.000000
49 11 0.520405 0.100000 7.887627 -1.220375 0.057407 -0.008962 0.089164 -0.360311 -7.512716 10.285421 -22.507024
49 1106 0.260203 0.100000 6.239927 -0.802906 -0.485341 0.000000 0.000000 0.000000 0.000000 0.000000 0.000000
49 1106 0.520405 0.100000 6.858909 -0.732256 0.149197 0.042691 0.006376 0.321098 4.163956 -0.972356 24.479456
49 1106 0.260203 0.100000 6.082384 -0.840842 0.308781 0.000000 0.000000 0.000000 0.000000 0.000000 0.000000
49 1106 0.520405 0.100000 5.831733 -1.322100 -0.232978 -0.098396 -0.211345 -0.069326 -10.187584 -12.355178 -6.119977
49 14 0.260203 0.100000 7.053437 -0.790851 0.614849 0.000000 0.000000 0.000000 0.000000 0.000000 0.000000
49 14 0.520405 0.100000 6.914744 -1.367396 0.295427 0.016817 -0.070025 0.324943 9.906183 -4.565871 35.465890
49 15 0.260203 0.100000 5.728677 -1.347674 0.318024 0.000000 0.000000 0.000000 0.000000 0.000000 0.000000
49 15 0.520405 0.100000 6.329974 -1.036830 -0.045583 -0.057931 0.012127 0.107201 -3.368295 -2.135346 10.501803
49 16 0.260203 0.100000 7.234073 -0.789520 -0.512186 0.000000 0.000000 0.000000 0.000000 0.000000 0.000000
49 16 0.520405 0.100000 7.671808 -1.358368 -0.257397 0.081586 0.038724 0.294277 13.808469 7.146148 31.836244
49 1106 0.260203 0.100000 5.670475 -1.649731 0.313053 0.000000 0.000000 0.000000 0.000000 0.000000 0.000000
49 1106 0.520405 0.100000 5.498134 -2.131085 0.311309 0.096700 -0.110405 0.271660 1.956381 -8.043760 24.817017
49 1106 0.260203 0.100000 6.139387 -0.822334 -0.390841 0.000000 0.000000 0.000000 0.000000 0.000000 0.000000
49 1106 0.520405 0.100000 6.885545 -1.130021 -0.693590 -0.032966 -0.043111 0.151940 -3.317266 1.297881 15.045470
49 1106 0.260203 0.100000 7.277849 -1.583722 -1.021092 0.000000 0.000000 0.000000 0.000000 0.000000 0.000000
49 1106 0.520405 0.100000 7.786431 -1.323585 -0.174707 0.093086 0.094511 0.243991 0.845958 15.099390 24.026757
49 20 0.260203 0.100000 6.106452 -2.397936 -0.626888 0.000000 0.000000 0.000000 0.000000 0.000000 0.000000
49 20 0.520405 0.100000 6.130668 -2.061035 -0.772776 -0.253865 0.068140 0.137538 -26.458945 -0.668805 10.057231
49 1106 0.260203 0.100000 5.745771 -1.197039 0.111422 0.000000 0.000000 0.000000 0.000000 0.000000 0.000000
49 1106 0.520405 0.100000 5.736440 -1.495522 0.816547 0.215375 -0.080097 0.418708 3.869781 -12.939309 42.509385
49 1106 0.260203 0.100000 6.733969 -2.684860 0.559129 0.000000 0.000000 0.000000 0.000000 0.000000 0.000000
49 1106 0.520405 0.100000 6.916168 -2.535089 0.236436 -0.272323 -0.048648 -0.229814 -14.751846 5.311157 -19.549838
49 1107 0.360575 0.100000 7.506967 -2.274407 0.631594 0.000000 0.000000 0.000000 0.000000 0.000000 0.000000
49 1107 0.721150 0.100000 7.478091 -1.842004 -0.015156 -0.018324 0.112347 -0.148864 -9.141424 11.902938 -1.947859
49 2 1.139909 0.200000 6.762318 -1.698106 -0.010876 -0.583218 0.287143 -0.043205 0.020548 0.752890 0.657826
73 0 0.257196 0.100000 -0.095225 -2.393961 1.346582 0.000000 0.000000 0.000000 0.000000 0.000000 0.000000
73 0 0.514391 0.100000 -0.192661 -2.933347 1.135574 0.069837 -0.472265 0.064097 8.734203 -34.657410 9.743152
73 1 0.257196 0.100000 -1.861453 -3.307091 0.482246 0.000000 0.000000 0.000000 0.000000 0.000000 0.000000
73 1 0.514391 0.100000 -1.671946 -3.664918 1.109197 -0.053286 -0.027896 -0.170746 0.834888 -3.552660 -13.217765
73 1106 0.257196 0.100000 -2.139037 -2.732114 0.661204 0.000000 0.000000 0.000000 0.000000 0.000000 0.000000
73 1106 0.514391 0.100000 -1.870899 -2.965971 0.458751 0.056902 -0.125192 0.132074 9.788554 -9.826377 4.169110
73 4 0.257196 0.100000 -1.497147 -2.352965 -0.079515 0.000000 0.000000 0.000000 0.000000 0.000000 0.000000
73 4 0.514391 0.100000 -1.104826 -2.455117 0.161931 0.021400 -0.208823 -0.291199 12.800087 -17.418095 -13.143928
73 5 0.257196 0.100000 -0.714435 -3.622642 0.463313 0.000000 0.000000 0.000000 0.000000 0.000000 0.000000
73 5 0.514391 0.100000 -0.185382 -3.657760 1.120682 0.120611 -0.037837 -0.081377 7.881585 -13.721765 -10.664779
73 6 0.257196 0.100000 0.040063 -2.588558 0.865640 0.000000 0.000000 0.000000 0.000000 0.000000 0.000000
73 6 0.514391 0.100000 0.306167 -2.953229 1.009918 0.143391 -0.378712 0.129941 14.651854 -36.592148 9.086558
73 7 0.257196 0.100000 -1.059970 -1.775480 0.230275 0.000000 0.000000 0.000000 0.000000 0.000000 0.000000
73 7 0.514391 0.100000 -1.318533 -1.299809 -0.140645 0.056620 -0.144774 0.081403 5.472821 -13.417106 -4.349434
73 8 0.257196 0.100000 -0.665802 -1.670491 0.610435 0.000000 0.000000 0.000000 0.000000 0.000000 0.000000
73 8 0.514391 0.100000 -0.288098 -1.282365 0.303783 -0.169662 -0.203092 -0.158704 -17.318936 -20.324929 -12.686363
73 9 0.257196 0.100000 -2.020524 -2.407136 1.365496 0.000000 0.000000 0.000000 0.000000 0.000000 0.000000
73 9 0.514391 0.100000 -1.951737 -2.767977 1.355911 0.015772 -0.015686 -0.126513 8.088287 -9.370924 -20.905116
73 10 0.257196 0.100000 -0.749229 -2.197514 1.835725 0.000000 0.000000 0.000000 0.000000 0.000000 0.000000
73 10 0.514391 0.100000 -0.544099 -2.737547 1.573629 -0.169621 -0.290612 -0.425973 -9.529192 -23.239021 -32.687236
73 11 0.257196 0.100000 -0.394324 -2.645076 0.005853 0.000000 0.000000 0.000000 0.000000 0.000000 0.000000
73 11 0.514391 0.100000 -0.923445 -2.966528 0.095899 0.173032 -0.053821 -0.109250 11.220209 -6.256197 -20.430678
73 12 0.257196 0.100000 -2.097937 -2.286986 0.883820 0.000000 0.000000 0.000000 0.000000 0.000000 0.000000
73 12 0.514391 0.100000 -1.975514 -1.865670 0.640336 0.004920 -0.273051 -0.016075 -1.783092 -18.469135 5.297605
73 1106 0.257196 0.100000 -1.962433 -2.377522 0.317124 0.000000 0.000000 0.000000 0.000000 0.000000 0.000000
73 1106 0.514391 0.100000 -1.904818 -2.391653 0.699995 -0.027745 -0.112670 -0.078332 0.962396 -11.229427 5.817325
73 14 0.257196 0.100000 -1.109203 -1.573555 1.050052 0.000000 0.000000 0.000000 0.000000 0.000000 0.000000
73 14 0.514391 0.100000 -0.775698 -1.376282 1.478246 -0.360913 -0.239190 0.251027 -21.097763 -23.936831 16.799470
73 15 0.257196 0.100000 -1.420988 -3.668128 1.165907 0.000000 0.000000 0.000000 0.000000 0.000000 0.000000
73 15 0.514391 0.100000 -1.114031 -3.692477 1.146522 0.006286 0.040885 -0.256193 -6.241717 0.187147 -19.763511
73 1106 0.257196 0.100000 -0.257848 -2.013963 0.496495 0.000000 0.000000 0.000000 0.000000 0.000000 0.000000
73 1106 0.514391 0.100000 -0.058180 -2.067162 0.544843 -0.149521 -0.238566 -0.247361 -15.749214 -29.196523 -31.257622
73 1106 0.257196 0.100000 -0.256123 -1.950278 1.133292 0.000000 0.000000 0.000000 0.000000 0.000000 0.000000
73 1106 0.514391 0.100000 -0.410979 -2.523740 1.380379 -0.075316 -0.340042 0.122045 -9.509180 -35.389784 21.550959
73 1106 0.257196 0.100000 -1.416259 -2.073755 1.747411 0.000000 0.000000 0.000000 0.000000 0.000000 0.000000
73 1106 0.514391 0.100000 -1.508574 -1.871410 1.549441 -0.141169 -0.177589 -0.122802 -17.612627 -24.941224 -9.583422
73 19 0.257196 0.100000 -0.849327 -1.768614 0.275276 0.000000 0.000000 0.000000 0.000000 0.000000 0.000000
73 19 0.514391 0.100000 -1.373839 -1.524449 0.009129 0.040590 -0.195277 -0.004656 10.070222 -16.519796 -1.915752
73 20 0.257196 0.100000 -0.184432 -3.009790 0.310775 0.000000 0.000000 0.000000 0.000000 0.000000 0.000000
73 20 0.514391 0.100000 0.278621 -3.403286 0.093329 -0.140950 0.000142 0.060517 -6.201371 6.893401 6.409812
73 1106 0.257196 0.100000 -1.412743 -2.929847 1.896591 0.000000 0.000000 0.000000 0.000000 0.000000 0.000000
73 1106 0.514391 0.100000 -1.005923 -2.680098 1.516735 -0.135563 -0.217460 -0.280664 -10.291067 -16.207018 -25.234872
73 1106 0.257196 0.100000 -1.562223 -1.681808 0.837513 0.000000 0.000000 0.000000 0.000000 0.000000 0.000000
73 1106 0.514391 0.100000 -1.542437 -2.031595 1.528196 -0.079952 -0.145936 0.045082 -9.792010 -18.064203 -0.379884
73 1107 0.381383 0.100000 -1.216334 -2.818574 1.966634 0.000000 0.000000 0.000000 0.000000 0.000000 0.000000
73 1107 0.762766 0.100000 -0.635736 -2.747820 1.479230 -0.250837 0.083674 -0.042862 -37.579856 12.242379 -20.062193
73 3 1.103491 0.200000 -1.060700 -2.663587 0.885223 0.090148 -0.106532 -0.430304 -0.989370 -0.002565 -0.145400
97 0 0.246869 0.100000 -1.919269 -2.176882 0.066306 0.000000 0.000000 0.000000 0.000000 0.000000 0.000000
97 0 0.493738 0.100000 -2.018096 -1.777167 -0.441866 0.059093 0.025188 -0.052964 -4.041891 -10.906221 -4.815550
97 1 0.246869 0.100000 -2.459570 -2.797675 -0.491557 0.000000 0.000000 0.000000 0.000000 0.000000 0.000000
97 1 0.493738 0.100000 -2.501256 -2.721319 -0.352225 -0.051783 -0.002045 -0.212656 0.356270 -10.073018 -17.975089
97 1106 0.246869 0.100000 -2.808645 -2.222819 -0.209787 0.000000 0.000000 0.000000 0.000000 0.000000 0.000000
97 1106 0.493738 0.100000 -3.107292 -1.799183 -0.964901 0.170237 -0.187627 -0.159958 11.091282 -20.726711 -17.418886
97 3 0.246869 0.100000 -1.584791 -2.218895 -0.063273 0.000000 0.000000 0.000000 0.000000 0.000000 0.000000
97 3 0.493738 0.100000 -1.676398 -2.783003 -0.769995 0.169179 -0.324202 -0.246802 10.683787 -27.549385 -23.996072
97 5 0.246869 0.100000 -1.534767 -2.780457 -0.675504 0.000000 0.000000 0.000000 0.000000 0.000000 0.000000
97 5 0.493738 0.100000 -1.505022 -2.778442 -1.392089 -0.019536 -0.223692 -0.152307 3.305172 -27.974773 -16.857105
97 6 0.246869 0.100000 -1.067842 -2.012952 -0.581326 0.000000 0.000000 0.000000 0.000000 0.000000 0.000000
97 6 0.493738 0.100000 -1.562827 -2.065586 -0.550209 0.197156 -0.327305 -0.165648 12.018906 -23.579035 -10.449136
97 7 0.246869 0.100000 -2.606578 -0.905896 -0.754262 0.000000 0.000000 0.000000 0.000000 0.000000 0.000000
97 7 0.493738 0.100000 -2.589470 -1.042682 -1.588942 0.163823 0.041687 -0.162907 11.817896 0.302926 -5.766068
97 1106 0.246869 0.100000 -2.582566 -0.865067 -0.988154 0.000000 0.000000 0.000000 0.000000 0.000000 0.000000
97 1106 0.493738 0.100000 -2.703719 -0.375711 -1.266164 0.131744 -0.077924 -0.314596 13.081308 -4.699143 -30.203900
97 1106 0.246869 0.100000 -1.094202 -1.467363 -0.706565 0.000000 0.000000 0.000000 0.000000 0.000000 0.000000
97 1106 0.493738 0.100000 -0.728069 -1.015985 -1.602698 -0.102596 0.013187 -0.495506 -5.538155 -13.960606 -48.413629
97 1106 0.246869 0.100000 -1.181871 -2.488345 -0.827805 0.000000 0.000000 0.000000 0.000000 0.000000 0.000000
97 1106 0.493738 0.100000 -1.381508 -2.842421 -0.855320 0.104943 -0.250724 -0.229613 15.436436 -26.417050 -24.710907
97 11 0.246869 0.100000 -1.021903 -2.171452 -1.024549 0.000000 0.000000 0.000000 0.000000 0.000000 0.000000
97 11 0.493738 0.100000 -1.473302 -1.877948 -1.583312 0.051997 -0.176781 0.078045 5.705277 -11.170993 10.490613
97 1106 0.246869 0.100000 -2.579995 -1.833118 0.012876 0.000000 0.000000 0.000000 0.000000 0.000000 0.000000
97 1106 0.493738 0.100000 -2.687428 -1.737545 -0.145824 0.025742 -0.147700 0.060137 -0.448463 -10.175422 2.159841
97 1106 0.246869 0.100000 -3.186392 -1.688112 -0.842297 0.000000 0.000000 0.000000 0.000000 0.000000 0.000000
97 1106 0.493738 0.100000 -2.872721 -1.422613 -0.710837 0.236717 0.039444 -0.085149 10.013036 -2.266454 -6.431458
97 1106 0.246869 0.100000 -1.687777 -1.356177 -0.088362 0.000000 0.000000 0.000000 0.000000 0.000000 0.000000
97 1106 0.493738 0.100000 -1.415615 -1.371370 0.068262 0.080835 -0.166842 -0.034485 5.221160 -12.842223 -2.313781
97 15 0.246869 0.100000 -1.256085 -1.381319 -0.441445 0.000000 0.000000 0.000000 0.000000 0.000000 0.000000
97 15 0.493738 0.100000 -1.801222 -1.281088 -0.257867 0.058628 -0.118089 -0.059321 -7.934117 -3.418877 -7.590825
97 1106 0.246869 0.100000 -2.292195 -1.076513 -0.231119 0.000000 0.000000 0.000000 0.000000 0.000000 0.000000
97 1106 0.493738 0.100000 -2.252987 -0.654274 -0.914511 0.107910 -0.084457 -0.097257 3.011175 2.122695 -20.777275
97 17 0.246869 0.100000 -1.249165 -1.182310 -1.231149 0.000000 0.000000 0.000000 0.000000 0.000000 0.000000
97 17 0.493738 0.100000 -0.957887 -1.683168 -1.607023 0.158324 -0.040555 0.201637 15.565756 -7.976855 15.865952
97 1106 0.246869 0.100000 -2.819968 -2.598469 -1.425342 0.000000 0.000000 0.000000 0.000000 0.000000 0.000000
97 1106 0.493738 0.100000 -2.958230 -2.288822 -1.418615 0.210409 -0.072548 0.290942 25.645214 -13.022314 18.994871
97 1106 0.246869 0.100000 -1.295001 -1.162847 -0.666486 0.000000 0.000000 0.000000 0.000000 0.000000 0.000000
97 1106 0.493738 0.100000 -1.370293 -1.384943 -1.416133 -0.008912 -0.051377 -0.562617 4.053959 -3.157652 -42.472633
97 20 0.246869 0.100000 -1.296860 -1.124814 -0.760252 0.000000 0.000000 0.000000 0.000000 0.000000 0.000000
97 20 0.493738 0.100000 -1.733368 -1.551056 -1.157631 -0.003877 -0.023912 -0.235723 -1.288290 -6.550748 -32.956225
97 21 0.246869 0.100000 -2.412359 -0.799547 -0.959901 0.000000 0.000000 0.000000 0.000000 0.000000 0.000000
97 21 0.493738 0.100000 -2.046607 -0.994079 -1.646457 0.187948 0.076396 0.024139 15.141121 12.213756 0.031340
97 1106 0.246869 0.100000 -2.373614 -0.922339 -0.470479 0.000000 0.000000 0.000000 0.000000 0.000000 0.000000
97 1106 0.493738 0.100000 -2.895449 -1.186626 -0.860353 0.154644 0.054877 -0.030057 12.456536 3.237493 -10.635245
97 1107 0.395381 0.100000 -2.441276 -2.205203 -1.997884 0.000000 0.000000 0.000000 0.000000 0.000000 0.000000
97 1107 0.790762 0.100000 -2.236694 -2.247025 -1.447778 0.112514 -0.552398 0.129404 4.361212 -89.078930 25.285979
97 4 1.115851 0.200000 -2.095475 -1.868986 -0.991652 0.023781 -0.115747 0.432307 -0.118511 0.952045 -0.282072
121 0 0.249257 0.100000 0.358348 -3.809848 0.670732 0.000000 0.000000 0.000000 0.000000 0.000000 0.000000
121 0 0.498515 0.100000 0.394598 -4.357128 0.362740 0.075135 -0.020012 0.340163 3.348222 1.354554 36.183341
121 1 0.249257 0.100000 -1.381905 -4.345092 -0.045726 0.000000 0.000000 0.000000 0.000000 0.000000 0.000000
121 1 0.498515 0.100000 -1.565838 -4.473080 0.230082 -0.147211 -0.173515 0.201946 -9.452472 -17.977349 13.703349
121 2 0.249257 0.100000 -1.361410 -4.232802 -0.052771 0.000000 0.000000 0.000000 0.000000 0.000000 0.000000
121 2 0.498515 0.100000 -1.147688 -5.095649 -0.028881 -0.157387 -0.312176 -0.071689 -12.969076 -31.967434 -6.960559
121 3 0.249257 0.100000 -0.717460 -3.513482 0.361061 0.000000 0.000000 0.000000 0.000000 0.000000 0.000000
121 3 0.498515 0.100000 -0.508933 -3.425305 0.401069 -0.060942 0.050459 0.067248 1.426126 3.235542 -4.915685
121 4 0.249257 0.100000 -0.884161 -3.669988 -0.458621 0.000000 0.000000 0.000000 0.000000 0.000000 0.000000
121 4 0.498515 0.100000 -1.053293 -3.930305 0.005296 0.066460 0.228895 -0.167382 3.507893 14.696003 -13.710290
121 6 0.249257 0.100000 0.451713 -3.646955 0.259806 0.000000 0.000000 0.000000 0.000000 0.000000 0.000000
121 6 0.498515 0.100000 0.912804 -3.696973 0.574675 0.061792 0.049491 0.505454 -3.309298 3.427385 34.558119
121 7 0.249257 0.100000 0.727188 -4.338293 0.538214 0.000000 0.000000 0.000000 0.000000 0.000000 0.000000
121 7 0.498515 0.100000 0.546940 -4.696545 0.691026 0.087921 0.266235 0.157038 3.464245 25.573584 2.615246
121 8 0.249257 0.100000 -1.177733 -4.380870 0.666836 0.000000 0.000000 0.000000 0.000000 0.000000 0.000000
121 8 0.498515 0.100000 -1.026158 -4.975349 0.125483 -0.173815 -0.358808 0.186605 -9.691489 -40.656272 9.600021
121 9 0.249257 0.100000 0.429315 -3.658875 -0.322570 0.000000 0.000000 0.000000 0.000000 0.000000 0.000000
121 9 0.498515 0.100000 0.293386 -3.779728 -0.746127 -0.160949 0.126562 -0.123591 -7.277952 11.989922 -27.443362
121 10 0.249257 0.100000 0.857845 -4.336636 0.009130 0.000000 0.000000 0.000000 0.000000 0.000000 0.000000
121 10 0.498515 0.100000 0.398475 -4.628816 -0.651283 -0.064648 -0.283920 -0.356614 5.273560 -21.619913 -32.668790
121 11 0.249257 0.100000 0.004639 -3.531762 -0.528212 0.000000 0.000000 0.000000 0.000000 0.000000 0.000000
121 11 0.498515 0.100000 -0.390641 -4.201923 -0.822396 -0.224862 -0.075921 -0.502932 -22.470401 1.457777 -42.567713
121 1106 0.249257 0.100000 -1.124555 -3.775849 0.177829 0.000000 0.000000 0.000000 0.000000 0.000000 0.000000
121 1106 0.498515 0.100000 -1.257626 -4.381535 0.223629 -0.080898 -0.076682 0.195237 -4.316440 -7.716271 14.319082
121 1106 0.249257 0.100000 -1.178710 -3.904886 -0.300237 0.000000 0.000000 0.000000 0.000000 0.000000 0.000000
121 1106 0.498515 0.100000 -0.861037 -4.372615 -0.107564 -0.075467 0.064201 -0.037399 -4.318875 0.851281 -14.977517
121 14 0.249257 0.100000 -0.256590 -4.461116 -1.117155 0.000000 0.000000 0.000000 0.000000 0.000000 0.000000
121 14 0.498515 0.100000 -0.157211 -4.261375 -0.955668 -0.242257 0.285519 0.062353 -18.103799 31.357215 3.660364
121 15 0.249257 0.100000 0.526760 -4.059393 -0.673956 0.000000 0.000000 0.000000 0.000000 0.000000 0.000000
121 15 0.498515 0.100000 0.731593 -4.418680 -0.877317 0.007240 0.339674 -0.075413 7.886337 32.481653 5.939241
121 1106 0.249257 0.100000 0.754823 -4.932691 0.224414 0.000000 0.000000 0.000000 0.000000 0.000000 0.000000
121 1106 0.498515 0.100000 0.334717 -5.269303 -0.043517 -0.072193 0.213924 -0.002175 -5.243628 17.519393 -3.628900
121 1106 0.249257 0.100000 -0.154970 -3.416613 0.357633 0.000000 0.000000 0.000000 0.000000 0.000000 0.000000
121 1106 0.498515 0.100000 -0.101188 -4.017116 0.918005 0.133831 -0.174242 0.508562 7.396149 -13.695311 39.763316
121 1106 0.249257 0.100000 0.124123 -3.490657 -0.353741 0.000000 0.000000 0.000000 0.000000 0.000000 0.000000