ITEM: TIMESTEP
300
ITEM: NUMBER OF ATOMS
7000
ITEM: BOX BOUNDS pp pp pp
-36.000000 36.000000
-36.000000 36.000000
-36.000000 36.000000
ITEM: ATOMS id type color radius Transparency xu yu zu
0 100 1 0.272558 0.100000 -5.147478 3.397207 -1.462489
1 100 1 0.272558 0.100000 7.583340 -1.067869 1.290004
2 100 1 0.272558 0.100000 -6.974861 -0.384803 1.553844
3 100 1 0.272558 0.100000 -5.105941 1.014969 -2.026313
4 100 1 0.272558 0.100000 -0.306222 -3.794924 1.920135
5 100 1 0.272558 0.100000 -1.399348 -2.154531 -2.312509
6 100 1 0.272558 0.100000 -0.145501 -4.776132 -1.495188
7 100 1 0.272558 0.100000 0.905050 -4.276544 -1.753189
8 100 1 0.272558 0.100000 6.440653 0.855322 -1.712137
9 100 1 0.272558 0.100000 -7.168967 -2.529133 1.055989
10 100 1 0.272558 0.100000 -5.903899 -2.825752 -1.448860
11 100 1 0.272558 0.100000 -4.742402 2.688338 1.797125
12 100 1 0.272558 0.100000 -8.156668 2.116886 0.628981
13 100 1 0.272558 0.100000 -5.782886 1.770015 1.749932
14 100 1 0.272558 0.100000 6.065412 -3.511211 1.099879
15 100 1 0.272558 0.100000 -5.678085 -4.560750 0.308446
16 100 1 0.272558 0.100000 6.785489 0.169699 1.657127
17 100 1 0.272558 0.100000 0.238598 -2.564903 -2.252089
18 100 1 0.272558 0.100000 5.952287 -1.674238 -1.727058
19 100 1 0.272558 0.100000 5.476399 -4.714337 -0.060823
20 100 1 0.272558 0.100000 0.293678 4.504238 -1.634760
21 100 1 0.272558 0.100000 -2.976849 5.254582 -0.910843
22 100 1 0.272558 0.100000 -5.614073 4.496093 0.507326
23 100 1 0.272558 0.100000 -3.030997 -0.372685 2.342996
24 100 1 0.272558 0.100000 1.678761 4.920567 -1.335024
25 100 1 0.272558 0.100000 6.564121 3.631589 -0.836605
26 100 1 0.272558 0.100000 -6.191887 -3.238451 -1.177283
27 100 1 0.272558 0.100000 4.646990 -0.206530 2.136755
28 100 1 0.272558 0.100000 2.693835 -0.984119 2.338620
29 100 1 0.272558 0.100000 7.706498 1.423358 -1.166589
30 100 1 0.272558 0.100000 0.603901 -4.684826 1.536491
31 100 1 0.272558 0.100000 7.424775 -3.056722 0.552899
32 100 1 0.272558 0.100000 -3.561157 1.717090 -2.187842
33 100 1 0.272558 0.100000 -4.638510 -4.833940 0.689475
34 100 1 0.272558 0.100000 -5.640649 -3.141187 1.446934
35 100 1 0.272558 0.100000 -1.007674 -4.219151 -1.738775
36 100 1 0.272558 0.100000 -0.383558 3.068744 2.155958
37 100 1 0.272558 0.100000 2.300746 5.160468 1.084438
38 100 1 0.272558 0.100000 -3.484565 4.530697 1.340329
39 100 1 0.272558 0.100000 -1.275540 -4.633940 1.532182
40 100 1 0.272558 0.100000 6.177307 3.231116 -1.193727
41 100 1 0.272558 0.100000 1.344510 3.922374 -1.853135
42 100 1 0.272558 0.100000 2.001351 4.266118 1.681543
43 100 1 0.272558 0.100000 7.330155 0.742427 -1.397176
44 100 1 0.272558 0.100000 -2.532411 3.471946 -1.930334
45 100 1 0.272558 0.100000 6.757921 -3.922262 0.201718
46 100 1 0.272558 0.100000 -8.269831 -1.061802 0.864424
47 100 1 0.272558 0.100000 0.041631 3.835248 -1.913648
48 100 1 0.272558 0.100000 8.845572 0.893378 0.337671
49 100 1 0.272558 0.100000 -2.456452 5.462305 -0.824540
50 100 1 0.272558 0.100000 -4.996391 3.411405 1.530836
51 100 1 0.272558 0.100000 1.515374 0.857838 2.429918
52 100 1 0.272558 0.100000 3.837559 5.201928 -0.675514
53 100 1 0.272558 0.100000 4.903895 5.048784 -0.192994
54 100 1 0.272558 0.100000 -7.264764 0.218253 -1.457072
55 100 1 0.272558 0.100000 -1.358711 -3.988312 -1.813705
56 100 1 0.272558 0.100000 -5.661826 -3.858247 -1.117327
57 100 1 0.272558 0.100000 -7.580508 0.866036 1.318555
58 100 1 0.272558 0.100000 -0.092084 2.112122 2.334274
59 100 1 0.272558 0.100000 -4.066709 -3.256595 -1.777432
60 100 1 0.272558 0.100000 -0.243221 4.882547 1.470839
61 100 1 0.272558 0.100000 -2.519788 -2.243155 2.198467
62 100 1 0.272558 0.100000 -2.632042 0.938121 -2.372437
63 100 1 0.272558 0.100000 -4.526818 -3.278489 1.659119
64 100 1 0.272558 0.100000 3.143475 -5.053057 1.023826
65 100 1 0.272558 0.100000 4.726405 -5.075532 0.113982
66 100 1 0.272558 0.100000 -7.485223 -3.280077 0.019260
67 100 1 0.272558 0.100000 -3.326406 4.058688 -1.581376
68 100 1 0.272558 0.100000 -3.841893 5.131734 -0.696943
69 100 1 0.272558 0.100000 0.847168 4.245583 1.739467
70 100 1 0.272558 0.100000 4.509252 5.069733 -0.539631
71 100 1 0.272558 0.100000 1.414972 1.211485 -2.428110
72 100 1 0.272558 0.100000 7.705097 2.906955 -0.471261
73 100 1 0.272558 0.100000 -1.517381 -1.382455 -2.404766
74 100 1 0.272558 0.100000 -0.502589 0.964395 -2.452727
75 100 1 0.272558 0.100000 -0.642061 -3.066118 2.129240
76 100 1 0.272558 0.100000 -2.044651 0.948216 -2.414919
77 100 1 0.272558 0.100000 -4.399384 -0.050197 -2.190840
78 100 1 0.272558 0.100000 1.267101 2.891532 2.154493
79 100 1 0.272558 0.100000 -1.360588 -4.769911 -1.461880
80 100 1 0.272558 0.100000 -5.925609 2.339077 -1.604259
81 100 1 0.272558 0.100000 -7.982922 1.037012 -1.045928
82 100 1 0.272558 0.100000 2.989953 -1.337800 -2.278972
83 100 1 0.272558 0.100000 2.027667 -2.701536 -2.172875
84 100 1 0.272558 0.100000 1.957466 0.983406 2.403691
85 100 1 0.272558 0.100000 6.458162 2.234836 -1.478349
86 100 1 0.272558 0.100000 -0.082234 -2.466832 2.267265
87 100 1 0.272558 0.100000 7.188567 -0.771707 1.449981
88 100 1 0.272558 0.100000 -3.764284 4.914469 -0.961162
89 100 1 0.272558 0.100000 -0.950136 0.735703 2.474193
90 100 1 0.272558 0.100000 -3.363359 -0.016682 -2.328103
91 100 1 0.272558 0.100000 -5.224634 -1.500201 -1.929120
92 100 1 0.272558 0.100000 -2.303334 0.875322 -2.375885
93 100 1 0.272558 0.100000 7.730616 3.009073 -0.114655
94 100 1 0.272558 0.100000 0.888420 -3.444639 2.051100
95 100 1 0.272558 0.100000 4.283027 5.239513 0.066204
96 100 1 0.272558 0.100000 -2.154433 3.048005 -2.054290
97 100 1 0.272558 0.100000 1.961898 -5.838695 -0.287904
98 100 1 0.272558 0.100000 5.305167 -0.335435 2.019358
99 100 1 0.272558 0.100000 0.490807 3.863181 -1.907306
100 100 1 0.272558 0.100000 2.238481 -2.110317 2.262946
101 100 1 0.272558 0.100000 8.011984 1.522391 -0.914819
102 100 1 0.272558 0.100000 -8.543333 -1.778000 0.035107
103 100 1 0.272558 0.100000 0.181415 2.981264 -2.159095
104 100 1 0.272558 0.100000 4.348804 2.945462 1.827556
105 100 1 0.272558 0.100000 -4.783458 -4.247909 1.187505
106 100 1 0.272558 0.100000 0.594362 5.632207 0.878143
107 100 1 0.272558 0.100000 -0.436258 -5.580891 0.943105
108 100 1 0.272558 0.100000 -1.721782 -4.075011 -1.761494
109 100 1 0.272558 0.100000 -2.254327 4.814385 1.340314
110 100 1 0.272558 0.100000 -5.895406 2.893875 -1.469310
111 100 1 0.272558 0.100000 -7.650220 -2.011755 -1.037765
112 100 1 0.272558 0.100000 -2.882967 1.136979 -2.308550
113 100 1 0.272558 0.100000 5.623246 -1.613614 -1.847861
114 100 1 0.272558 0.100000 3.541631 -3.458827 -1.776256
115 100 1 0.272558 0.100000 -6.977303 -1.935004 1.332210
116 100 1 0.272558 0.100000 -2.214817 4.265251 1.634008
117 100 1 0.272558 0.100000 -7.002510 -1.128214 1.517424
118 100 1 0.272558 0.100000 -2.107001 -0.263659 -2.438821
119 100 1 0.272558 0.100000 4.264673 -5.298057 0.075677
120 100 1 0.272558 0.100000 -2.357074 -5.750071 0.161362
121 100 1 0.272558 0.100000 -0.576576 4.743354 1.505664
122 100 1 0.272558 0.100000 1.853400 1.639617 2.345704
123 100 1 0.272558 0.100000 -1.914554 -4.832539 -1.402755
124 100 1 0.272558 0.100000 8.439686 1.693690 -0.570898
125 100 1 0.272558 0.100000 -5.264338 -3.944786 1.207719
126 100 1 0.272558 0.100000 1.164948 2.838579 -2.170113
127 100 1 0.272558 0.100000 -3.961544 2.622692 -1.942532
128 100 1 0.272558 0.100000 3.961830 -2.090375 -2.055970
129 100 1 0.272558 0.100000 -4.854885 -1.103487 2.043189
130 100 1 0.272558 0.100000 -0.375110 4.405401 1.709107
131 100 1 0.272558 0.100000 4.113651 -0.119259 2.234877
132 100 1 0.272558 0.100000 -7.229163 1.992394 1.236574
133 100 1 0.272558 0.100000 -8.464278 1.715975 -0.424109
134 100 1 0.272558 0.100000 -4.599332 -2.852408 1.804391
135 100 1 0.272558 0.100000 0.641038 -4.876576 -1.459566
136 100 1 0.272558 0.100000 1.467511 -0.235296 -2.469997
137 100 1 0.272558 0.100000 3.895124 -2.912663 1.889968
138 100 1 0.272558 0.100000 6.075208 -0.996037 1.783350
139 100 1 0.272558 0.100000 -8.142653 -0.104358 -1.092240
140 100 1 0.272558 0.100000 2.243268 -3.176583 -2.040046
141 100 1 0.272558 0.100000 -4.320031 4.535117 -1.091650
142 100 1 0.272558 0.100000 1.739573 -3.320328 2.010496
143 100 1 0.272558 0.100000 2.506449 5.624018 0.488493
144 100 1 0.272558 0.100000 -5.528276 -4.652134 -0.263570
145 100 1 0.272558 0.100000 -2.625379 4.545573 1.445529
146 100 1 0.272558 0.100000 -2.650260 5.178980 1.029785
147 100 1 0.272558 0.100000 -0.728470 3.127027 2.134841
148 100 1 0.272558 0.100000 -0.176207 1.101510 2.447699
149 100 1 0.272558 0.100000 4.585376 -1.412990 2.078876
150 100 1 0.272558 0.100000 4.886576 1.035296 -2.046177
151 100 1 0.272558 0.100000 0.091458 -5.925532 0.300363
152 100 1 0.272558 0.100000 -0.838347 5.384515 -1.048497
153 100 1 0.272558 0.100000 7.744875 -2.946814 0.403441
154 100 1 0.272558 0.100000 3.238908 1.645789 2.217423
155 100 1 0.272558 0.100000 3.548665 -4.795827 1.155074
156 100 1 0.272558 0.100000 -0.433906 -0.123301 2.488214
157 100 1 0.272558 0.100000 -0.814316 -1.222805 2.446800
158 100 1 0.272558 0.100000 2.174251 -0.523378 -2.407396
159 100 1 0.272558 0.100000 -4.999791 -0.218729 -2.066178
160 100 1 0.272558 0.100000 5.147303 0.500520 -2.030555
161 100 1 0.272558 0.100000 -2.970485 -2.007574 -2.196187
162 100 1 0.272558 0.100000 5.562174 -0.566800 -1.946491
163 100 1 0.272558 0.100000 5.026958 3.167794 1.588020
164 100 1 0.272558 0.100000 -6.659667 3.014549 -1.135739
165 100 1 0.272558 0.100000 -0.855573 1.054439 -2.448021
166 100 1 0.272558 0.100000 4.967222 -3.685171 1.389027
167 100 1 0.272558 0.100000 -0.337785 3.519675 -2.015622
168 100 1 0.272558 0.100000 -1.878134 3.320565 -2.032337
169 100 1 0.272558 0.100000 2.934586 5.470380 -0.671297
170 100 1 0.272558 0.100000 -3.344582 -0.064551 2.333129
171 100 1 0.272558 0.100000 -2.814177 -0.099458 2.383384
172 100 1 0.272558 0.100000 6.221104 3.951111 -0.699845
173 100 1 0.272558 0.100000 -2.575835 -4.823259 -1.326536
174 100 1 0.272558 0.100000 -6.239519 -0.455017 1.801420
175 100 1 0.272558 0.100000 -2.550444 -2.845824 -2.071583
176 100 1 0.272558 0.100000 -1.588923 5.588132 -0.837837
177 100 1 0.272558 0.100000 4.015595 0.864771 2.202400
178 100 1 0.272558 0.100000 -8.682068 1.586695 -0.117537
179 100 1 0.272558 0.100000 -6.887751 3.818183 -0.338914
180 100 1 0.272558 0.100000 -2.653899 -1.156210 2.349356
181 100 1 0.272558 0.100000 -5.567872 2.459570 1.667268
182 100 1 0.272558 0.100000 5.621349 3.884172 -1.070252
183 100 1 0.272558 0.100000 4.094772 4.914770 0.889914
184 100 1 0.272558 0.100000 7.490328 -2.665662 -0.866930
185 100 1 0.272558 0.100000 -6.719116 3.658924 0.652829
186 100 1 0.272558 0.100000 -1.071346 3.033988 2.127559
187 100 1 0.272558 0.100000 0.173599 0.210742 2.507654
188 100 1 0.272558 0.100000 0.717469 -2.784053 -2.189295
189 100 1 0.272558 0.100000 6.395409 1.247652 1.695858
190 100 1 0.272558 0.100000 -8.184350 -2.143347 0.460114
191 100 1 0.272558 0.100000 -2.270722 -5.804570 -0.246003
192 100 1 0.272558 0.100000 0.925229 3.700900 1.957468
193 100 1 0.272558 0.100000 6.098257 3.648735 1.011373
194 100 1 0.272558 0.100000 -4.714829 1.702372 -1.993933
195 100 1 0.272558 0.100000 -2.485986 -2.861423 2.072106
196 100 1 0.272558 0.100000 -7.956327 1.178319 1.090545
197 100 1 0.272558 0.100000 -2.700062 4.852791 1.249196
198 100 1 0.272558 0.100000 -8.261361 -0.632581 -0.916208
199 100 1 0.272558 0.100000 -2.952319 -1.207992 -2.316205
200 100 1 0.272558 0.100000 1.155146 -4.803094 1.445542
201 100 1 0.272558 0.100000 7.664902 -2.745421 -0.584123
202 100 1 0.272558 0.100000 5.588822 -2.677346 1.625321
203 100 1 0.272558 0.100000 7.814020 1.987327 0.936332
204 100 1 0.272558 0.100000 3.984954 -4.813514 -1.028182
205 100 1 0.272558 0.100000 8.117960 -2.175505 0.527126
206 100 1 0.272558 0.100000 -2.705469 4.623482 -1.392348
207 100 1 0.272558 0.100000 -2.108443 -4.536470 1.510407
208 100 1 0.272558 0.100000 5.856962 0.031651 1.883802
209 100 1 0.272558 0.100000 -6.714980 -3.893614 -0.459488
210 100 1 0.272558 0.100000 -8.420665 1.469095 0.633272
211 100 1 0.272558 0.100000 -1.781390 0.197099 2.437752
212 100 1 0.272558 0.100000 -1.051885 5.802807 0.507863
213 100 1 0.272558 0.100000 -6.353575 -2.711821 -1.337446
214 100 1 0.272558 0.100000 6.616682 1.523624 -1.558464
215 100 1 0.272558 0.100000 2.339442 4.324982 -1.615244
216 100 1 0.272558 0.100000 -0.371075 -5.455019 -1.017040
217 100 1 0.272558 0.100000 -3.264917 5.561107 -0.098816
218 100 1 0.272558 0.100000 -1.057721 0.361144 2.468932
219 100 1 0.272558 0.100000 6.259522 4.229095 -0.237090
220 100 1 0.272558 0.100000 -1.972848 1.717488 -2.325106
221 100 1 0.272558 0.100000 6.755638 -3.860572 -0.285965
222 100 1 0.272558 0.100000 -0.113076 -0.660276 2.474681
223 100 1 0.272558 0.100000 -3.606633 3.077678 -1.911710
224 100 1 0.272558 0.100000 -6.235390 0.718054 1.763589
225 100 1 0.272558 0.100000 2.402617 -4.298644 1.599018
226 100 1 0.272558 0.100000 1.046410 -0.135403 -2.477497
227 100 1 0.272558 0.100000 -1.701984 0.905559 -2.414725
228 100 1 0.272558 0.100000 -2.678438 1.573566 -2.283297
229 100 1 0.272558 0.100000 5.907719 2.890592 -1.433539
230 100 1 0.272558 0.100000 5.040400 -4.325745 -1.046719
231 100 1 0.272558 0.100000 -4.467851 4.701861 0.954186
232 100 1 0.272558 0.100000 1.074278 -4.551008 -1.619126
233 100 1 0.272558 0.100000 -6.408043 -3.168879 1.132461
234 100 1 0.272558 0.100000 5.043706 -3.082596 -1.642676
235 100 1 0.272558 0.100000 5.367723 1.321668 -1.920254
236 100 1 0.272558 0.100000 5.702364 1.002489 -1.888625
237 100 1 0.272558 0.100000 2.315926 2.491159 2.178948
238 100 1 0.272558 0.100000 -7.969770 -1.238582 -1.062579
239 100 1 0.272558 0.100000 6.355123 -3.106215 -1.185004
240 100 1 0.272558 0.100000 -3.945147 -0.992812 -2.222473
241 100 1 0.272558 0.100000 1.349368 1.919418 2.347691
242 100 1 0.272558 0.100000 -8.062582 -2.061667 -0.704440
243 100 1 0.272558 0.100000 -1.102318 4.637292 1.574382
244 100 1 0.272558 0.100000 7.182724 1.804558 -1.319025
245 100 1 0.272558 0.100000 -4.068770 -5.021752 0.726448
246 100 1 0.272558 0.100000 7.473291 2.061575 1.071756
247 100 1 0.272558 0.100000 -7.038400 1.254653 1.472270
248 100 1 0.272558 0.100000 4.321142 -3.474133 -1.628993
249 100 1 0.272558 0.100000 3.094597 -5.519452 0.483208
250 100 1 0.272558 0.100000 -3.832175 2.332304 2.031470
251 100 1 0.272558 0.100000 -0.190121 4.968343 -1.392568
252 100 1 0.272558 0.100000 -5.482416 4.135010 -0.999717
253 100 1 0.272558 0.100000 -3.243253 5.210973 0.880763
254 100 1 0.272558 0.100000 2.138388 -1.204972 -2.384224
255 100 1 0.272558 0.100000 1.511868 2.062773 -2.316855
256 100 1 0.272558 0.100000 -4.212872 -0.624390 2.210351
257 100 1 0.272558 0.100000 3.705745 -5.372131 0.482538
258 100 1 0.272558 0.100000 -4.233705 -2.699339 1.886651
259 100 1 0.272558 0.100000 -0.076396 2.492203 -2.287633
260 100 1 0.272558 0.100000 -0.902163 -1.798555 2.369299
261 100 1 0.272558 0.100000 -2.890198 3.846840 -1.727195
262 100 1 0.272558 0.100000 -3.365748 -4.689699 1.251914
263 100 1 0.272558 0.100000 2.608561 -5.162717 1.032974
264 100 1 0.272558 0.100000 0.503630 3.377334 -2.051597
265 100 1 0.272558 0.100000 -5.593200 -0.378422 -1.964692
266 100 1 0.272558 0.100000 -9.016517 0.130922 0.183832
267 100 1 0.272558 0.100000 -4.163415 0.924787 -2.196051
268 100 1 0.272558 0.100000 -8.666880 0.358693 -0.697033
269 100 1 0.272558 0.100000 5.055393 -4.260331 1.033881
270 100 1 0.272558 0.100000 -3.693122 -0.888417 2.237485
271 100 1 0.272558 0.100000 4.932079 -0.007702 -2.079804
272 100 1 0.272558 0.100000 0.030363 4.715984 -1.563888
273 100 1 0.272558 0.100000 4.986421 0.136515 2.084972
274 100 1 0.272558 0.100000 -3.089489 -5.596471 -0.131718
275 100 1 0.272558 0.100000 -7.220167 -1.672472 -1.305366
276 100 1 0.272558 0.100000 6.291310 -2.712253 1.366818
277 100 1 0.272558 0.100000 2.695976 -3.310499 -1.930848
278 100 1 0.272558 0.100000 2.203239 -4.584582 1.483134
279 100 1 0.272558 0.100000 -3.522848 3.715405 -1.713145
280 100 1 0.272558 0.100000 1.486835 0.481949 2.461269
281 100 1 0.272558 0.100000 1.414622 -5.832399 0.367652
282 100 1 0.272558 0.100000 -6.672012 1.932323 -1.452986
283 100 1 0.272558 0.100000 3.004846 5.587453 0.275109
284 100 1 0.272558 0.100000 -7.845974 2.843289 0.104502
285 100 1 0.272558 0.100000 1.063521 1.214421 2.422110
286 100 1 0.272558 0.100000 -2.835606 3.331240 -1.907944
287 100 1 0.272558 0.100000 3.046784 -2.346275 2.130856
288 100 1 0.272558 0.100000 -4.637721 -2.625802 -1.854108
289 100 1 0.272558 0.100000 3.761628 -1.793963 -2.155310
290 100 1 0.272558 0.100000 -2.332708 1.559832 -2.335836
291 100 1 0.272558 0.100000 1.958563 5.875662 -0.100599
292 100 1 0.272558 0.100000 -0.775422 2.274561 2.317289
293 100 1 0.272558 0.100000 -8.024220 0.837195 1.050124
294 100 1 0.272558 0.100000 3.179094 -0.723997 2.310774
295 100 1 0.272558 0.100000 8.390578 -1.752705 -0.472036
296 100 1 0.272558 0.100000 6.260945 0.377027 -1.774428
297 100 1 0.272558 0.100000 5.517627 1.168510 1.905489
298 100 1 0.272558 0.100000 3.496231 -2.032146 -2.128763
299 100 1 0.272558 0.100000 -1.883544 2.094587 2.278229
300 100 1 0.272558 0.100000 -2.288083 -1.017665 -2.370527
301 100 1 0.272558 0.100000 0.618119 2.357710 2.296085
302 100 1 0.272558 0.100000 -1.137041 3.341022 -2.040995
303 100 1 0.272558 0.100000 8.607834 1.616719 0.016569
304 100 1 0.272558 0.100000 -3.924643 5.082394 0.719008
305 100 1 0.272558 0.100000 7.402697 -0.702680 -1.376880
306 100 1 0.272558 0.100000 -0.297228 4.193100 -1.769849
307 100 1 0.272558 0.100000 7.169190 2.599369 -1.034858
308 100 1 0.272558 0.100000 -3.576289 -2.204509 2.099106
309 100 1 0.272558 0.100000 -2.719565 -2.379526 -2.163665
310 100 1 0.272558 0.100000 -3.346029 -5.246615 0.804547
311 100 1 0.272558 0.100000 -5.454185 3.505407 -1.329219
312 100 1 0.272558 0.100000 -0.436788 -2.225924 -2.309354
313 100 1 0.272558 0.100000 -8.378994 -0.315937 -0.936243
314 100 1 0.272558 0.100000 -3.572145 -1.485830 2.197638
315 100 1 0.272558 0.100000 4.603694 3.897387 1.390876
316 100 1 0.272558 0.100000 2.622583 -4.624861 -1.402379
317 100 1 0.272558 0.100000 -3.043413 -4.928755 1.140596
318 100 1 0.272558 0.100000 3.147385 0.319063 2.341699
319 100 1 0.272558 0.100000 -3.047467 0.135673 -2.346292
320 100 1 0.272558 0.100000 -6.419542 3.293738 -1.076247
321 100 1 0.272558 0.100000 -6.416756 -2.353245 1.429634
322 100 1 0.272558 0.100000 -6.059826 1.556572 1.719983
323 100 1 0.272558 0.100000 -2.983376 5.589773 -0.365373
324 100 1 0.272558 0.100000 -0.488993 5.166042 -1.272411
325 100 1 0.272558 0.100000 4.575202 3.576016 1.546747
326 100 1 0.272558 0.100000 -4.150302 -4.928573 -0.862189
327 100 1 0.272558 0.100000 0.668958 3.947208 1.857085
328 100 1 0.272558 0.100000 -1.883815 4.177615 1.700775
329 100 1 0.272558 0.100000 0.620596 -3.690355 -1.947816
330 100 1 0.272558 0.100000 0.711111 -5.936903 -0.372345
331 100 1 0.272558 0.100000 6.642246 -0.087242 -1.673331
332 100 1 0.272558 0.100000 -3.502129 1.048444 -2.274819
333 100 1 0.272558 0.100000 -1.799973 4.257963 -1.681389
334 100 1 0.272558 0.100000 -4.738259 -3.238758 -1.628913
335 100 1 0.272558 0.100000 -3.946370 0.698260 2.213870
336 100 1 0.272558 0.100000 7.500338 -3.063466 -0.557283
337 100 1 0.272558 0.100000 3.005037 -2.745363 2.046351
338 100 1 0.272558 0.100000 5.618136 4.305453 0.780604
339 100 1 0.272558 0.100000 -2.649676 4.129219 -1.654601
340 100 1 0.272558 0.100000 1.483208 -2.831505 2.150820
341 100 1 0.272558 0.100000 0.885586 -4.267263 1.757565
342 100 1 0.272558 0.100000 3.967502 2.859616 1.896627
343 100 1 0.272558 0.100000 6.794493 0.747104 -1.593449
344 100 1 0.272558 0.100000 -0.176392 -1.154778 -2.447485
345 100 1 0.272558 0.100000 -0.295870 -1.897572 -2.371723
346 100 1 0.272558 0.100000 -3.764390 -2.936783 1.900236
347 100 1 0.272558 0.100000 2.299600 -3.017785 2.075533
348 100 1 0.272558 0.100000 -4.334997 -5.187380 0.266840
349 100 1 0.272558 0.100000 -2.793615 -0.874320 -2.346297
350 100 1 0.272558 0.100000 3.464109 4.922314 1.080096
351 100 1 0.272558 0.100000 -2.778942 3.640855 1.838463
352 100 1 0.272558 0.100000 -5.714091 -2.043419 -1.746426
353 100 1 0.272558 0.100000 6.264175 -0.106975 -1.801287
354 100 1 0.272558 0.100000 5.433600 -2.826248 -1.611473
355 100 1 0.272558 0.100000 -2.252046 -4.250277 1.665984
356 100 1 0.272558 0.100000 -6.835824 3.781343 0.326320
357 100 1 0.272558 0.100000 -2.153363 -3.828744 1.825418
358 100 1 0.272558 0.100000 2.937369 0.615459 -2.346075
359 100 1 0.272558 0.100000 -4.949150 -4.130482 -1.162068
360 100 1 0.272558 0.100000 -5.463970 -0.636807 1.961340
361 100 1 0.272558 0.100000 1.844600 -2.842365 2.147399
362 100 1 0.272558 0.100000 4.863950 -4.983020 -0.387410
363 100 1 0.272558 0.100000 6.889149 -3.629058 -0.567166
364 100 1 0.272558 0.100000 2.104049 -3.326392 1.997356
365 100 1 0.272558 0.100000 3.806953 1.170732 2.219670
366 100 1 0.272558 0.100000 3.767603 0.772990 -2.239924
367 100 1 0.272558 0.100000 -6.487958 -1.521135 -1.600905
368 100 1 0.272558 0.100000 -6.894583 -3.164535 -0.954869
369 100 1 0.272558 0.100000 1.514890 0.519238 -2.464037
370 100 1 0.272558 0.100000 0.979121 2.306977 2.293568
371 100 1 0.272558 0.100000 4.547076 1.117494 -2.099476
372 100 1 0.272558 0.100000 -3.716919 -4.144399 1.492763
373 100 1 0.272558 0.100000 -3.214378 -0.347499 -2.325029
374 100 1 0.272558 0.100000 3.886618 3.992409 1.514002
375 100 1 0.272558 0.100000 -5.867798 -1.159236 1.820368
376 100 1 0.272558 0.100000 -0.543041 5.939026 -0.175223
377 100 1 0.272558 0.100000 4.585018 1.974105 -1.982295
378 100 1 0.272558 0.100000 -6.263871 0.112976 1.789927
379 100 1 0.272558 0.100000 -4.936341 -4.817283 -0.580318
380 100 1 0.272558 0.100000 -2.361529 0.003468 -2.401785
381 100 1 0.272558 0.100000 -1.443473 -4.090959 1.799222
382 100 1 0.272558 0.100000 7.891638 0.801103 -1.179442
383 100 1 0.272558 0.100000 4.081050 -0.025122 -2.218517
384 100 1 0.272558 0.100000 -7.630583 1.188089 1.203357
385 100 1 0.272558 0.100000 -8.078403 1.655705 0.858880
386 100 1 0.272558 0.100000 -1.438758 3.540734 -1.965181
387 100 1 0.272558 0.100000 -3.670325 2.233420 -2.080584
388 100 1 0.272558 0.100000 -3.098272 -4.199434 1.578279
389 100 1 0.272558 0.100000 6.646968 0.325380 -1.690344
390 100 1 0.272558 0.100000 4.470413 -1.013230 -2.137931
391 100 1 0.272558 0.100000 -1.444398 4.649341 1.512147
392 100 1 0.272558 0.100000 -5.961432 4.375113 0.356733
393 100 1 0.272558 0.100000 -3.674878 -2.538534 -2.017524
394 100 1 0.272558 0.100000 -3.865817 1.874540 -2.103712
395 100 1 0.272558 0.100000 -6.988517 -3.379037 -0.653512
396 100 1 0.272558 0.100000 3.248971 5.602526 -0.201632
397 100 1 0.272558 0.100000 -8.140523 2.428944 0.211862
398 100 1 0.272558 0.100000 -5.720041 -0.320288 1.916134
399 100 1 0.272558 0.100000 -1.586732 3.158785 -2.062575
400 100 1 0.272558 0.100000 -0.145556 5.904579 -0.444614
401 100 1 0.272558 0.100000 2.499021 2.984316 -2.039609
402 100 1 0.272558 0.100000 1.280995 1.562899 -2.389078
403 100 1 0.272558 0.100000 6.240504 -3.897945 0.737016
404 100 1 0.272558 0.100000 -5.060478 -3.387784 -1.495655
405 100 1 0.272558 0.100000 -4.076153 -4.651696 -1.106416
406 100 1 0.272558 0.100000 2.021232 5.060780 -1.203551
407 100 1 0.272558 0.100000 1.338488 2.521069 -2.240922
408 100 1 0.272558 0.100000 -7.718604 -2.987979 -0.301560
409 100 1 0.272558 0.100000 -7.685446 2.195785 -0.888281
410 100 1 0.272558 0.100000 0.479378 2.680674 2.219452
411 100 1 0.272558 0.100000 -4.084094 5.368459 0.065666
412 100 1 0.272558 0.100000 -1.879132 -0.537338 -2.436725
413 100 1 0.272558 0.100000 -5.232442 2.428050 1.778725
414 100 1 0.272558 0.100000 1.509328 -2.063029 2.295343
415 100 1 0.272558 0.100000 3.470368 3.565838 -1.751255
416 100 1 0.272558 0.100000 -1.610328 -2.603339 -2.195847
417 100 1 0.272558 0.100000 -1.176441 -5.833010 -0.425774
418 100 1 0.272558 0.100000 2.296781 3.250273 -2.013765
419 100 1 0.272558 0.100000 2.857195 4.577617 -1.429123
420 100 1 0.272558 0.100000 -1.573007 1.258789 2.398470
421 100 1 0.272558 0.100000 7.880815 -0.942382 1.125229
422 100 1 0.272558 0.100000 5.859800 -2.103586 1.687729
423 100 1 0.272558 0.100000 -7.145941 -2.979899 -0.821963
424 100 1 0.272558 0.100000 0.339017 -5.676200 -0.845442
425 100 1 0.272558 0.100000 -3.403604 -4.360468 1.423852
426 100 1 0.272558 0.100000 5.811297 -1.648761 1.764712
427 100 1 0.272558 0.100000 3.020119 -0.440379 -2.339758
428 100 1 0.272558 0.100000 0.868464 0.178916 2.485879
429 100 1 0.272558 0.100000 7.621227 1.218965 1.207446
430 100 1 0.272558 0.100000 -0.428025 -0.906600 -2.463397
431 100 1 0.272558 0.100000 6.147447 -1.008811 -1.788979
432 100 1 0.272558 0.100000 -4.831572 4.426625 0.993003
433 100 1 0.272558 0.100000 5.194995 -3.021487 1.608252
434 100 1 0.272558 0.100000 6.431444 -1.372405 -1.668409
435 100 1 0.272558 0.100000 2.718816 3.317328 -1.933424
436 100 1 0.272558 0.100000 -6.805176 -3.657085 0.555083
437 100 1 0.272558 0.100000 6.464424 0.553407 1.740766
438 100 1 0.272558 0.100000 0.332505 5.130953 1.269630
439 100 1 0.272558 0.100000 0.986596 0.518887 2.485885
440 100 1 0.272558 0.100000 2.916707 2.651753 -2.081469
441 100 1 0.272558 0.100000 -1.917491 -5.668878 -0.573206
442 100 1 0.272558 0.100000 7.449579 3.408736 -0.021518
443 100 1 0.272558 0.100000 8.262074 2.322115 -0.350531
444 100 1 0.272558 0.100000 2.365291 -2.657056 2.127337
445 100 1 0.272558 0.100000 -8.308469 -1.869568 -0.517017
446 100 1 0.272558 0.100000 0.925737 0.878677 2.466516
447 100 1 0.272558 0.100000 -3.676925 -0.130405 2.268670
448 100 1 0.272558 0.100000 -6.055613 -4.248211 0.559519
449 100 1 0.272558 0.100000 3.697260 4.827772 -1.052205
450 100 1 0.272558 0.100000 6.390026 0.895607 1.705323
451 100 1 0.272558 0.100000 4.701305 -4.443558 -1.034983
452 100 1 0.272558 0.100000 7.905481 0.945202 1.101964
453 100 1 0.272558 0.100000 0.913813 1.523544 -2.398976
454 100 1 0.272558 0.100000 -1.745219 -1.865284 2.340162
455 100 1 0.272558 0.100000 -6.712044 2.479413 1.286796
456 100 1 0.272558 0.100000 -3.588994 0.537034 2.268988
457 100 1 0.272558 0.100000 2.332752 1.678247 -2.313689
458 100 1 0.272558 0.100000 1.876629 1.443368 -2.363419
459 100 1 0.272558 0.100000 -8.069665 0.600156 -1.101570
460 100 1 0.272558 0.100000 -4.705517 -0.613530 2.100710
461 100 1 0.272558 0.100000 -5.429996 3.489096 1.367442
462 100 1 0.272558 0.100000 -5.263027 4.809429 -0.210778
463 100 1 0.272558 0.100000 2.747226 -3.961965 1.717562
464 100 1 0.272558 0.100000 -3.168457 3.189202 -1.919086
465 100 1 0.272558 0.100000 7.926690 -1.687715 -0.934334
466 100 1 0.272558 0.100000 5.251043 0.958864 -1.993696
467 100 1 0.272558 0.100000 -2.726916 1.944454 -2.230373
468 100 1 0.272558 0.100000 -2.365529 -4.370223 -1.566642
469 100 1 0.272558 0.100000 1.777953 -5.800924 0.321478
470 100 1 0.272558 0.100000 -7.284787 -3.545718 0.143275
471 100 1 0.272558 0.100000 -4.315601 -5.265865 -0.216264
472 100 1 0.272558 0.100000 -5.259712 -3.613690 1.341272
473 100 1 0.272558 0.100000 5.587829 -4.188100 0.861415
474 100 1 0.272558 0.100000 8.005747 -1.760398 0.894906
475 100 1 0.272558 0.100000 -4.597925 -2.232845 1.920584
476 100 1 0.272558 0.100000 3.229712 -4.650822 1.277969
477 100 1 0.272558 0.100000 3.109244 -4.185659 1.554978
478 100 1 0.272558 0.100000 -1.970518 3.062181 2.091727
479 100 1 0.272558 0.100000 3.001590 5.112556 0.980623
480 100 1 0.272558 0.100000 -8.617592 -1.206439 0.455645
481 100 1 0.272558 0.100000 -7.373302 3.277627 0.454910
482 100 1 0.272558 0.100000 -0.431692 -4.601631 -1.615283
483 100 1 0.272558 0.100000 -4.484988 1.511337 2.061331
484 100 1 0.272558 0.100000 -3.295588 2.827621 1.990775
485 100 1 0.272558 0.100000 -6.946064 -3.745015 0.137784
486 100 1 0.272558 0.100000 2.915532 5.638875 -0.099565
487 100 1 0.272558 0.100000 8.575227 0.191705 -0.721409
488 100 1 0.272558 0.100000 1.917025 3.225795 -2.026449
489 100 1 0.272558 0.100000 5.433086 -0.162974 -1.985451
490 100 1 0.272558 0.100000 1.255152 5.787635 0.567733
491 100 1 0.272558 0.100000 -0.719027 -3.813127 1.926166
492 100 1 0.272558 0.100000 -0.967515 0.230908 -2.474629
493 100 1 0.272558 0.100000 -7.476632 3.264549 -0.141329
494 100 1 0.272558 0.100000 -1.850314 -3.323797 -2.000022
495 100 1 0.272558 0.100000 -3.226173 4.333604 1.476168
496 100 1 0.272558 0.100000 -6.662892 -2.421919 -1.313359
497 100 1 0.272558 0.100000 -0.194809 0.235350 2.489060
498 100 1 0.272558 0.100000 -4.532396 -4.519428 1.080542
499 100 1 0.272558 0.100000 -6.305371 -0.193125 -1.796303
500 100 1 0.272558 0.100000 -1.016748 -0.633701 -2.460656
501 100 1 0.272558 0.100000 -5.096332 2.109864 1.845864
502 100 1 0.272558 0.100000 -0.436201 -2.513904 2.255222
503 100 1 0.272558 0.100000 0.494844 -1.493279 2.407971
504 100 1 0.272558 0.100000 -7.055829 2.991174 -0.893936
505 100 1 0.272558 0.100000 2.975894 1.101129 -2.317775
506 100 1 0.272558 0.100000 -7.769218 2.772215 -0.441571
507 100 1 0.272558 0.100000 -6.761236 -0.871355 -1.628873
508 100 1 0.272558 0.100000 1.045177 -0.378805 2.481247
509 100 1 0.272558 0.100000 -3.052051 -5.232660 -0.854674
510 100 1 0.272558 0.100000 2.028927 -0.862061 -2.416279
511 100 1 0.272558 0.100000 5.031636 4.725744 0.690511
512 100 1 0.272558 0.100000 0.660984 3.051548 -2.141795
513 100 1 0.272558 0.100000 7.583980 0.139234 1.346311
514 100 1 0.272558 0.100000 -6.608366 0.895391 1.670591
515 100 1 0.272558 0.100000 3.481723 1.957114 2.153512
516 100 1 0.272558 0.100000 -0.622207 1.507727 -2.400897
517 100 1 0.272558 0.100000 -1.767925 -3.327259 2.034331
518 100 1 0.272558 0.100000 -4.722865 4.834254 -0.643445
519 100 1 0.272558 0.100000 -8.656947 1.255797 0.435914
520 100 1 0.272558 0.100000 5.326182 -4.356737 -0.839527
521 100 1 0.272558 0.100000 3.165136 -5.085140 -0.972263
522 100 1 0.272558 0.100000 8.433394 -2.023835 0.017922
523 100 1 0.272558 0.100000 -3.236194 0.795921 2.298076
524 100 1 0.272558 0.100000 2.879339 3.005077 -2.000408
525 100 1 0.272558 0.100000 5.949167 -2.734204 1.472009
526 100 1 0.272558 0.100000 0.182519 -2.250567 2.329198
527 100 1 0.272558 0.100000 6.521748 4.089328 0.302808
528 100 1 0.272558 0.100000 -5.297660 4.746050 0.334759